
                                 *****************
                                 * O   R   C   A *
                                 *****************

                                            #,                                       
                                            ###                                      
                                            ####                                     
                                            #####                                    
                                            ######                                   
                                           ########,                                 
                                     ,,################,,,,,                         
                               ,,#################################,,                 
                          ,,##########################################,,             
                       ,#########################################, ''#####,          
                    ,#############################################,,   '####,        
                  ,##################################################,,,,####,       
                ,###########''''           ''''###############################       
              ,#####''   ,,,,##########,,,,          '''####'''          '####       
            ,##' ,,,,###########################,,,                        '##       
           ' ,,###''''                  '''############,,,                           
         ,,##''                                '''############,,,,        ,,,,,,###''
      ,#''                                            '''#######################'''  
     '                                                          ''''####''''         
             ,#######,   #######,   ,#######,      ##                                
            ,#'     '#,  ##    ##  ,#'     '#,    #''#        ,####,    ,#,          
            ##       ##  ##   ,#'  ##            #'  '#       #'       ,# #          
            ##       ##  #######   ##           ,######,      #####,      #          
            '#,     ,#'  ##    ##  '#,     ,#' ,#      #,     #,   #      #          
             '#######'   ##     ##  '#######'  #'      '#     '####' #    #          



                #########################################################
                #                        -***-                          #
                #          Department of theory and spectroscopy        #
                #                                                       #
                #                      Frank Neese                      #
                #                                                       #
                #     Directorship, Architecture, Infrastructure        #
                #                    SHARK, DRIVERS                     #
                #        Core code/Algorithms in most modules           #
                #                                                       #
                #        Max Planck Institute fuer Kohlenforschung      #
                #                Kaiser Wilhelm Platz 1                 #
                #                 D-45470 Muelheim/Ruhr                 #
                #                      Germany                          #
                #                                                       #
                #                  All rights reserved                  #
                #                        -***-                          #
                #########################################################


                         Program Version 6.1.0  -  RELEASE   -
                                (GIT: $679e74b7b5$)
                          ($2025-06-10 18:02:51 +0200$)


 With contributions from (in alphabetic order):
[Max-Planck-Institut fuer Kohlenforschung]                               
  Daniel Aravena         : Magnetic Suceptibility                        
  Michael Atanasov       : Ab Initio Ligand Field Theory (pilot matlab implementation)
  Alexander A. Auer      : GIAO ZORA, VPT2 properties, NMR spectrum      
  Ute Becker             : All parallelization in ORCA, NUMFREQ, NUMCALC 
  Giovanni Bistoni       : ED, misc. LED, open-shell LED, HFLD           
  Dmytro Bykov           : pre 5.0 version of the SCF Hessian            
  Marcos Casanova-Páez   : Triplet and SCS-CIS(D). UHF-(DLPNO)-IP/EA/STEOM-CCSD. UHF-CVS-IP/STEOM-CCSD   
  Vijay G. Chilkuri      : MRCI spin determinant printing, contributions to CSF-ICE 
  Pauline Colinet        : FMM embedding                                 
  Dipayan Datta          : RHF DLPNO-CCSD density                        
  Achintya Kumar Dutta   : EOM-CC, STEOM-CC                              
  Nicolas Foglia         : Exact transition moments, OPA infrastructure, MCD improvements    
  Dmitry Ganyushin       : Spin-Orbit,Spin-Spin,Magnetic field MRCI      
  Miquel Garcia-Rates    : C-PCM and meta-GGA Hessian, CCSD/C-PCM, Gaussian charge scheme 
  Tiago L. C. Gouveia    : GS-ROHF, GS-ROCIS                             
  Yang Guo               : DLPNO-NEVPT2, F12-NEVPT2, CIM, IAO-localization        
  Andreas Hansen         : Spin unrestricted coupled pair/coupled cluster methods 
  Ingolf Harden          : AUTO-CI MPn and infrastructure                
  Benjamin Helmich-Paris : MC-RPA, TRAH-(SCF,CASSCF), AVAS, COSX integrals, SCF dyn. polar., MC-PDFT, srDFT 
  Lee Huntington         : MR-EOM, pCC                                   
  Robert Izsak           : Overlap fitted RIJCOSX, COSX-SCS-MP3, EOM     
  Riya Kayal             : Wick's Theorem for AUTO-CI, AUTO-CI UHF-CCSDT 
  Emily Kempfer          : AUTO-CI RHF CISDT and CCSDT, approximate NEVPT4
  Christian Kollmar      : KDIIS, OOCD, Brueckner-CCSD(T), CCSD density, CASPT2, CASPT2-K, improved NEVPT2 
  Axel Koslowski         : Symmetry handling                             
  Simone Kossmann        : meta-GGA functionals, TD-DFT gradient, OOMP2, (MP2 Hessian; deprecated post 5.0) 
  Lucas Lang             : DCDCAS, Hyperfine gauge corrections, ICE-SOC+SSC
  Marvin Lechner         : AUTO-CI (C++ implementation), FIC-MRCC        
  Spencer Leger          : CASSCF response                               
  Dagmar Lenk            : GEPOL surface, SMD, ORCA-2-JSON               
  Dimitrios Liakos       : Extrapolation schemes; Compound Job, Property file
  Dimitrios Manganas     : Further ROCIS development; embedding schemes. LFT, Crystal Embedding 
  Dimitrios Pantazis     : SARC Basis sets                               
  Anastasios Papadopoulos: AUTO-CI, single reference methods and gradients 
  Taras Petrenko         : pre 6.0 DFT Hessian and TD-DFT gradient,  ECA, NRVS 
  Petra Pikulova         : Analytic Raman intensities                    
  Peter Pinski           : DLPNO-MP2, DLPNO-MP2 Gradient                 
  Shashank Vittal Rao    : ES-AILFT, MagRelax                            
  Christoph Reimann      : Effective Core Potentials                     
  Marius Retegan         : Local ZFS, SOC                                
  Christoph Riplinger    : Optimizer, TS searches, QM/MM, DLPNO-CCSD(T), (RO)-DLPNO pert. Triples 
  Michael Roemelt        : Original ROCIS implementation, recursive CI coupling coefficients
  Masaaki Saitow         : Open-shell DLPNO-CCSD energy and density      
  Barbara Sandhoefer     : DKH picture change effects                    
  Yorick L. A. Schmerwitz: GMF and freeze-and-release deltaSCF, NEB S-IDPP initial path                    
  Kantharuban Sivalingam : CASSCF convergence/infrastructure, NEVPT2, NEVPT3, NEVPT4(SD), FIC-MRCI and CEPA variants
  Bernardo de Souza      : ESD, SOC TD-DFT                               
  Georgi L. Stoychev     : AutoAux, RI-MP2 NMR, DLPNO-MP2 response, X2C  
  Van Anh Tran           : RI-MP2 g-tensors                              
  Willem Van den Heuvel  : Paramagnetic NMR                              
  Zikuan Wang            : NOTCH, Electric field optimization            
  Frank Wennmohs         : Technical directorship and infrastructure     
  Hang Xu                : AUTO-CI-Response properties                   
                                                                         
[FACCTs GmbH]                                                            
  Markus Bursch, Nicolas Foglia, Miquel Garcia-Rates, Ingolf Harden, Hagen Neugebauer, Anastasios Papadopoulos, 
  Christoph Riplinger, Bernardo de Souza, Georgi L. Stoychev                                                    
                                                                 
  APM, various basis sets, CI-OPT, improved COSX, DLPNO-Multilevel,           
  DOCKER, DRACO, updates on ESD, Fragmentator, GOAT, IRC, LR-CPCM, L-BFGS, MBIS, meta-GGA TD-DFT gradient, ML-optimized integration grids, 
  MM, NACMEs, nearIR, NEB, NEB-TS, NL-DFT gradient (VV10), 2- and 3-layer-ONIOM, interface openCOSMO-RS, QMMM,   
  Crystal-QMMM, RESP, rigid body optimization, SF, symmetry and pop. for TD-DFT, various functionals, SOLVATOR                                   
                                                                         
[Other institutions]                                                     
  V. Asgeirsson          : NEB                                           
  Christoph Bannwarth    : sTDA-DFT, sTD-DFT, PBEh-3c, B97-3c, D3        
  Giovanni Bistoni       : ETS/NOCV, ADLD/ADEX, COVALED                  
  Martin Brehm           : Molecular dynamics                            
  Ronald Cardenas        : ETS/NOCV                                      
  Martina Colucci        : COVALED                                       
  Sebastian Ehlert       : rSCAN, r2SCAN, r2SCAN-3c, D4, dhf basis sets  
  Marvin Friede          : D4 for Fr, Ra, Ac-Lr                          
  Lars Goerigk           : TD-DFT with DH, B97 family of functionals     
  Stefan Grimme          : VdW corrections, initial TS optimization, DFT functionals, gCP, sTDA/sTD-DF 
  Waldemar Hujo          : DFT-NL                                        
  H. Jonsson             : NEB                                           
  Holger Kruse           : gCP                                           
  Marcel Mueller         : wB97X-3c, vDZP basis set                      
  Hagen Neugebauer       : wr2SCAN, Native XTB                           
  Gianluca Regni         : ADLD/ADEX                                     
  Tobias Risthaus        : pre 6.0 range-separated hybrid DFT and stability analysis
  Lukas Wittmann         : regularized MP2, r2SCAN double-hybrids, wr2SCAN        
                                                                         
We gratefully acknowledge several colleagues who have allowed us to      
interface, adapt or use parts of their codes:                            
  Ed Valeev, F. Pavosevic, A. Kumar             : LibInt (2-el integral package), F12 methods 
  Garnet Chan, S. Sharma, J. Yang, R. Olivares  : DMRG                   
  Ulf Ekstrom                                   : XCFun DFT Library      
  Mihaly Kallay                                 : mrcc  (arbitrary order and MRCC methods)
  Frank Weinhold                                : gennbo (NPA and NBO analysis)           
  Simon Mueller                                 : openCOSMO-RS                            
  Christopher J. Cramer and Donald G. Truhlar   : smd solvation model                     
  S Lehtola, MJT Oliveira, MAL Marques          : LibXC Library                           
  Liviu Ungur et al                             : ANISO software                          


 Your calculation uses the libint2 library for the computation of 2-el integrals
 For citations please refer to: http://libint.valeyev.net

 Your ORCA version has been built with support for libXC version: 7.0.0
 For citations please refer to: https://libxc.gitlab.io

 This ORCA versions uses:
   CBLAS   interface :  Fast vector & matrix operations
   LAPACKE interface :  Fast linear algebra routines
   SCALAPACK package :  Parallel linear algebra routines
   Shared memory     :  Shared parallel matrices


  ***********************************
  * Starting time: Fri Nov 28 20:42:34 2025
  * Host name:     Grants-Air.localdomain
  * Process ID:    20540
  * Working dir.:  /Users/grantkruttschnitt/Desktop/Github/OrcaChemistry
  ***********************************

NOTE: MaxCore=16384 MB was set to SCF,MP2,MDCI,CIPSI,MRCI,RASCI and CIS
      => If you want to overwrite this, your respective input block should be placed after the MaxCore statement
Warning: RI is on but no J-basis has been assigned. Assigning Def2/J (nothing to worry about!)
================================================================================

----- Orbital basis set information -----
Your calculation utilizes the basis: def2-TZVP
   F. Weigend and R. Ahlrichs, Phys. Chem. Chem. Phys. 7, 3297 (2005).

----- AuxJ basis set information -----
Your calculation utilizes the auxiliary basis: def2/J
   H-Rn: F. Weigend, Phys. Chem. Chem. Phys. 8, 1057 (2006).
   Fr-Lr: K. Eichkorn, F. Weigend, O. Treutler, R. Ahlrichs; Theor. Chem. Acc. 97, 119 (1997).

================================================================================
                                        WARNINGS
                       Please study these warnings very carefully!
================================================================================


WARNING: Geometry Optimization
  ===> : Switching off AutoStart
         For restart on a previous wavefunction, please use MOREAD

================================================================================
                                       INPUT FILE
================================================================================
NAME = pentanol.inp
|  1> # avogadro generated ORCA file
|  2> # pentanol
|  3> # 
|  4> ! Opt revPBE def2-TZVP 
|  5> 
|  6> %maxcore 16384
|  7> 
|  8> %output
|  9>    print[p_mos] 1
| 10>    print[p_basis] 2
| 11> end
| 12> 
| 13> * xyz 0 1
| 14>    C     -2.107086    1.493859   -0.081744
| 15>    C     -0.922732    2.325169    0.392585
| 16>    H     -2.172837    1.490609   -1.175348
| 17>    H     -2.032452    0.459755    0.267946
| 18>    H     -3.045363    1.921108    0.288295
| 19>    C      0.403244    1.765063   -0.132574
| 20>    H      3.033429    0.930198    0.235782
| 21>    O     -1.099021    3.667406   -0.052378
| 22>    C      1.607821    2.558243    0.381528
| 23>    H      0.407770    1.795309   -1.229617
| 24>    H      0.501637    0.714821    0.167795
| 25>    C      2.917019    1.961824   -0.111440
| 26>    H      1.544406    3.600560    0.049020
| 27>    H      1.607101    2.565878    1.477673
| 28>    H      2.962042    1.963832   -1.205219
| 29>    H      3.764051    2.544179    0.264591
| 30>    H     -0.912317    2.341670    1.487942
| 31>    H     -1.098546    3.661948   -1.024853
| 32> *
| 33> 
| 34> 
| 35> 
| 36>                          ****END OF INPUT****
================================================================================

                       *****************************
                       * Geometry Optimization Run *
                       *****************************

Geometry optimization settings:
Update method            Update   .... BFGS
Choice of coordinates    CoordSys .... (2022) Redundant Internals
Initial Hessian          InHess   .... Almloef's Model
Max. no of cycles        MaxIter  .... 54

Convergence Tolerances:
Energy Change            TolE     ....  5.0000e-06 Eh
Max. Gradient            TolMAXG  ....  3.0000e-04 Eh/bohr
RMS Gradient             TolRMSG  ....  1.0000e-04 Eh/bohr
Max. Displacement        TolMAXD  ....  4.0000e-03 bohr
RMS Displacement         TolRMSD  ....  2.0000e-03 bohr
Strict Convergence                .... False

------------------------------------------------------------------------------
                        ORCA OPTIMIZATION COORDINATE SETUP
------------------------------------------------------------------------------

The optimization will be done in redundant internal coordinates (2022)
Making redundant internal coordinates   ...  (2022 redundants) done
Evaluating the initial hessian          ...  (Almloef) done
Evaluating the coordinates              ...  done
Calculating the B-matrix                .... done
Calculating the G-matrix                .... done
The number of degrees of freedom        ....   75

    -----------------------------------------------------------------
                    Redundant Internal Coordinates


    -----------------------------------------------------------------
         Definition                    Initial Value    Approx d2E/dq
    -----------------------------------------------------------------
      1. B(C   1,C   0)                  1.5227         0.383662   
      2. B(H   2,C   0)                  1.0956         0.352789   
      3. B(H   3,C   0)                  1.0942         0.354616   
      4. B(H   4,C   0)                  1.0954         0.353066   
      5. B(C   5,C   1)                  1.5322         0.370529   
      6. B(O   7,C   1)                  1.4250         0.492051   
      7. B(C   8,C   5)                  1.5312         0.371991   
      8. B(H   9,C   5)                  1.0975         0.350354   
      9. B(H  10,C   5)                  1.0968         0.351251   
     10. B(C  11,C   8)                  1.5208         0.386463   
     11. B(C  11,H   6)                  1.0947         0.353937   
     12. B(H  12,C   8)                  1.0959         0.352373   
     13. B(H  13,C   8)                  1.0962         0.352027   
     14. B(H  14,C  11)                  1.0947         0.353927   
     15. B(H  15,C  11)                  1.0945         0.354155   
     16. B(H  16,C   1)                  1.0955         0.352857   
     17. B(H  17,O   7)                  0.9725         0.496637   
     18. A(H   2,C   0,H   4)          106.6761         0.289010   
     19. A(H   3,C   0,H   4)          108.6084         0.289244   
     20. A(C   1,C   0,H   3)          111.3062         0.324921   
     21. A(C   1,C   0,H   2)          111.0529         0.324646   
     22. A(C   1,C   0,H   4)          110.3688         0.324688   
     23. A(H   2,C   0,H   3)          108.6813         0.289208   
     24. A(O   7,C   1,H  16)          107.4090         0.336257   
     25. A(C   0,C   1,H  16)          109.0906         0.324656   
     26. A(C   0,C   1,C   5)          111.5155         0.364500   
     27. A(C   5,C   1,H  16)          109.8748         0.322806   
     28. A(C   0,C   1,O   7)          108.7072         0.380350   
     29. A(C   5,C   1,O   7)          110.1422         0.378062   
     30. A(H   9,C   5,H  10)          107.4444         0.288463   
     31. A(C   8,C   5,H  10)          109.4825         0.322772   
     32. A(C   1,C   5,H  10)          109.5003         0.322564   
     33. A(C   8,C   5,H   9)          108.5486         0.322637   
     34. A(C   1,C   5,H   9)          109.6396         0.322429   
     35. A(C   1,C   5,C   8)          112.1089         0.362580   
     36. A(C   1,O   7,H  17)          107.8725         0.353031   
     37. A(H  12,C   8,H  13)          107.2619         0.288823   
     38. A(C  11,C   8,H  13)          109.1139         0.324919   
     39. A(C   5,C   8,H  13)          109.8064         0.322889   
     40. A(C  11,C   8,H  12)          108.9334         0.324971   
     41. A(C   5,C   8,H  12)          110.2001         0.322941   
     42. A(C   5,C   8,C  11)          111.4238         0.365200   
     43. A(H  14,C  11,H  15)          108.0869         0.289295   
     44. A(C   8,C  11,H  15)          110.2541         0.325240   
     45. A(H   6,C  11,H  15)          108.0676         0.289296   
     46. A(C   8,C  11,H  14)          111.0124         0.325206   
     47. A(H   6,C  11,H  14)          108.3168         0.289267   
     48. A(H   6,C  11,C   8)          110.9967         0.325208   
     49. D(C   5,C   1,C   0,H   3)     60.3912         0.011720   
     50. D(O   7,C   1,C   0,H   2)     60.7783         0.011720   
     51. D(C   5,C   1,C   0,H   4)   -178.9347         0.011720   
     52. D(C   5,C   1,C   0,H   2)    -60.8415         0.011720   
     53. D(O   7,C   1,C   0,H   3)   -177.9889         0.011720   
     54. D(O   7,C   1,C   0,H   4)    -57.3149         0.011720   
     55. D(C   8,C   5,C   1,C   0)   -177.7408         0.010973   
     56. D(H   9,C   5,C   1,H  16)   -177.2869         0.010973   
     57. D(H   9,C   5,C   1,O   7)    -59.1581         0.010973   
     58. D(C   8,C   5,C   1,H  16)    -56.6540         0.010973   
     59. D(C   8,C   5,C   1,O   7)     61.4749         0.010973   
     60. D(H   9,C   5,C   1,C   0)     61.6262         0.010973   
     61. D(H  17,O   7,C   1,H  16)    179.3311         0.019123   
     62. D(H  17,O   7,C   1,C   5)     59.6941         0.019123   
     63. D(H  17,O   7,C   1,C   0)    -62.7606         0.019123   
     64. D(H  12,C   8,C   5,H  10)    177.4356         0.011055   
     65. D(H  12,C   8,C   5,H   9)     60.4276         0.011055   
     66. D(H  12,C   8,C   5,C   1)    -60.8352         0.011055   
     67. D(C  11,C   8,C   5,H  10)     56.3872         0.011055   
     68. D(C  11,C   8,C   5,H   9)    -60.6208         0.011055   
     69. D(C  11,C   8,C   5,C   1)    178.1164         0.011055   
     70. D(H  14,C  11,C   8,H  12)    -61.6821         0.011884   
     71. D(H  14,C  11,C   8,C   5)     60.1034         0.011884   
     72. D(H   6,C  11,C   8,H  13)     60.9847         0.011884   
     73. D(H   6,C  11,C   8,H  12)    177.7857         0.011884   
     74. D(H  14,C  11,C   8,H  13)   -178.4831         0.011884   
     75. D(H   6,C  11,C   8,C   5)    -60.4288         0.011884   
    -----------------------------------------------------------------

Number of atoms                         .... 18
Number of degrees of freedom            .... 75


         *************************************************************
         *                GEOMETRY OPTIMIZATION CYCLE   1            *
         *************************************************************
---------------------------------
CARTESIAN COORDINATES (ANGSTROEM)
---------------------------------
  C     -2.107086    1.493859   -0.081744
  C     -0.922732    2.325169    0.392585
  H     -2.172837    1.490609   -1.175348
  H     -2.032452    0.459755    0.267946
  H     -3.045363    1.921108    0.288295
  C      0.403244    1.765063   -0.132574
  H      3.033429    0.930198    0.235782
  O     -1.099021    3.667406   -0.052378
  C      1.607821    2.558243    0.381528
  H      0.407770    1.795309   -1.229617
  H      0.501637    0.714821    0.167795
  C      2.917019    1.961824   -0.111440
  H      1.544406    3.600560    0.049020
  H      1.607101    2.565878    1.477673
  H      2.962042    1.963832   -1.205219
  H      3.764051    2.544179    0.264591
  H     -0.912317    2.341670    1.487942
  H     -1.098546    3.661948   -1.024853

----------------------------
CARTESIAN COORDINATES (A.U.)
----------------------------
  NO LB      ZA    FRAG     MASS         X           Y           Z
   0 C     6.0000    0    12.011   -3.981815    2.822984   -0.154474
   1 C     6.0000    0    12.011   -1.743711    4.393933    0.741878
   2 H     1.0000    0     1.008   -4.106067    2.816843   -2.221086
   3 H     1.0000    0     1.008   -3.840778    0.868811    0.506345
   4 H     1.0000    0     1.008   -5.754902    3.630368    0.544799
   5 C     6.0000    0    12.011    0.762021    3.335486   -0.250529
   6 H     1.0000    0     1.008    5.732350    1.757819    0.445563
   7 O     8.0000    0    15.999   -2.076849    6.930393   -0.098980
   8 C     6.0000    0    12.011    3.038341    4.834379    0.720983
   9 H     1.0000    0     1.008    0.770574    3.392642   -2.323639
  10 H     1.0000    0     1.008    0.947957    1.350816    0.317087
  11 C     6.0000    0    12.011    5.512367    3.707310   -0.210591
  12 H     1.0000    0     1.008    2.918504    6.804072    0.092634
  13 H     1.0000    0     1.008    3.036981    4.848807    2.792397
  14 H     1.0000    0     1.008    5.597448    3.711105   -2.277534
  15 H     1.0000    0     1.008    7.113026    4.807802    0.500005
  16 H     1.0000    0     1.008   -1.724029    4.425115    2.811803
  17 H     1.0000    0     1.008   -2.075951    6.920079   -1.936691

--------------------------------
INTERNAL COORDINATES (ANGSTROEM)
--------------------------------
 C      0   0   0     0.000000000000     0.00000000     0.00000000
 C      1   0   0     1.522747094450     0.00000000     0.00000000
 H      1   2   0     1.095583618587   111.05291742     0.00000000
 H      1   2   3     1.094177505194   111.30615415   121.23277151
 H      1   2   3     1.095369480244   110.36876209   241.90680230
 C      2   1   3     1.532228135459   111.51546578   299.15846819
 H      6   2   1     2.783982551164   151.86705863   228.80985993
 O      2   1   3     1.425015805898   108.70716633    60.77829361
 C      6   2   1     1.531156793974   112.10888921   182.25915430
 H      6   2   1     1.097469201864   109.63964693    61.62620826
 H      6   2   1     1.096772983426   109.50027298   303.97810697
 C      7   6   2     1.094699323678    64.84706314   263.67514168
 H      9   6   2     1.095904996237   110.20009168   299.16476205
 H      9   6   2     1.096171826243   109.80644161    57.10679734
 H     12   7   6     1.094707085678   108.31680866   267.35322928
 H     12   7   6     1.094531803106   108.06760652   150.48211954
 H      2   1   3     1.095530790382   109.09061713   177.61555417
 H      8   2   1     0.972490432351   107.87248024   297.23937036

---------------------------
INTERNAL COORDINATES (A.U.)
---------------------------
 C      0   0   0     0.000000000000     0.00000000     0.00000000
 C      1   0   0     2.877574979735     0.00000000     0.00000000
 H      1   2   0     2.070352995941   111.05291742     0.00000000
 H      1   2   3     2.067695826713   111.30615415   121.23277151
 H      1   2   3     2.069948333118   110.36876209   241.90680230
 C      2   1   3     2.895491550707   111.51546578   299.15846819
 H      6   2   1     5.260964583316   151.86705863   228.80985993
 O      2   1   3     2.692889609656   108.70716633    60.77829361
 C      6   2   1     2.893467008704   112.10888921   182.25915430
 H      6   2   1     2.073916231937   109.63964693    61.62620826
 H      6   2   1     2.072600569760   109.50027298   303.97810697
 C      7   6   2     2.068681920739    64.84706314   263.67514168
 H      9   6   2     2.070960311685   110.20009168   299.16476205
 H      9   6   2     2.071464547321   109.80644161    57.10679734
 H     12   7   6     2.068696588795   108.31680866   267.35322928
 H     12   7   6     2.068365352737   108.06760652   150.48211954
 H      2   1   3     2.070253165100   109.09061713   177.61555417
 H      8   2   1     1.837740585002   107.87248024   297.23937036

---------------------
BASIS SET INFORMATION
---------------------
There are 3 groups of distinct atoms

 Group   1 Type C   : 11s6p2d1f contracted to 5s3p2d1f pattern {62111/411/11/1}
 Group   2 Type H   : 5s1p contracted to 3s1p pattern {311/1}
 Group   3 Type O   : 11s6p2d1f contracted to 5s3p2d1f pattern {62111/411/11/1}

Atom   0C    basis set group =>   1
Atom   1C    basis set group =>   1
Atom   2H    basis set group =>   2
Atom   3H    basis set group =>   2
Atom   4H    basis set group =>   2
Atom   5C    basis set group =>   1
Atom   6H    basis set group =>   2
Atom   7O    basis set group =>   3
Atom   8C    basis set group =>   1
Atom   9H    basis set group =>   2
Atom  10H    basis set group =>   2
Atom  11C    basis set group =>   1
Atom  12H    basis set group =>   2
Atom  13H    basis set group =>   2
Atom  14H    basis set group =>   2
Atom  15H    basis set group =>   2
Atom  16H    basis set group =>   2
Atom  17H    basis set group =>   2

-------------------------
BASIS SET IN INPUT FORMAT
-------------------------

 # Basis set for element : H 
 NewGTO H 
 S 3 
   1      34.0613410000      0.0254393072
   2       5.1235746000      0.1900859489
   3       1.1646626000      0.8524411301
 S 1 
   1       0.3272304100      1.0000000000
 S 1 
   1       0.1030724100      1.0000000000
 P 1 
   1       0.8000000000      1.0000000000
  end;

 # Basis set for element : C 
 NewGTO C 
 S 6 
   1   13575.3496820000      0.0006064549
   2    2035.2333680000      0.0046979088
   3     463.2256235900      0.0243324776
   4     131.2001959800      0.0973999683
   5      42.8530158910      0.3019558425
   6      15.5841857660      0.6623360915
 S 2 
   1       6.2067138508      0.6559530854
   2       2.5764896527      0.3758563329
 S 1 
   1       0.5769633942      1.0000000000
 S 1 
   1       0.2297283136      1.0000000000
 S 1 
   1       0.0951644400      1.0000000000
 P 4 
   1      34.6972322440      0.0113272200
   2       7.9582622826      0.0761696592
   3       2.3780826883      0.3019225220
   4       0.8143320818      0.7278502735
 P 1 
   1       0.2888754725      1.0000000000
 P 1 
   1       0.1005682367      1.0000000000
 D 1 
   1       1.0970000000      1.0000000000
 D 1 
   1       0.3180000000      1.0000000000
 F 1 
   1       0.7610000000      1.0000000000
  end;

 # Basis set for element : O 
 NewGTO O 
 S 6 
   1   27032.3826310000      0.0005722733
   2    4052.3871392000      0.0044353233
   3     922.3272271000      0.0230201076
   4     261.2407098900      0.0928224906
   5      85.3546413510      0.2937850002
   6      31.0350352450      0.6740160450
 S 2 
   1      12.2608607280      0.6383993702
   2       4.9987076005      0.3953458713
 S 1 
   1       1.1703108158      1.0000000000
 S 1 
   1       0.4647474099      1.0000000000
 S 1 
   1       0.1850453636      1.0000000000
 P 4 
   1      63.2749548010      0.0120183321
   2      14.6270493790      0.0830054217
   3       4.4501223456      0.3199174393
   4       1.5275799647      0.7071554292
 P 1 
   1       0.5293511794      1.0000000000
 P 1 
   1       0.1747842127      1.0000000000
 D 1 
   1       2.3140000000      1.0000000000
 D 1 
   1       0.6450000000      1.0000000000
 F 1 
   1       1.4280000000      1.0000000000
  end;

---------------------------------
AUXILIARY/J BASIS SET INFORMATION
---------------------------------
There are 3 groups of distinct atoms

 Group   1 Type C   : 12s5p4d2f1g contracted to 6s4p3d1f1g pattern {711111/2111/211/2/1}
 Group   2 Type H   : 5s2p1d contracted to 3s1p1d pattern {311/2/1}
 Group   3 Type O   : 12s5p4d2f1g contracted to 6s4p3d1f1g pattern {711111/2111/211/2/1}

Atom   0C    basis set group =>   1
Atom   1C    basis set group =>   1
Atom   2H    basis set group =>   2
Atom   3H    basis set group =>   2
Atom   4H    basis set group =>   2
Atom   5C    basis set group =>   1
Atom   6H    basis set group =>   2
Atom   7O    basis set group =>   3
Atom   8C    basis set group =>   1
Atom   9H    basis set group =>   2
Atom  10H    basis set group =>   2
Atom  11C    basis set group =>   1
Atom  12H    basis set group =>   2
Atom  13H    basis set group =>   2
Atom  14H    basis set group =>   2
Atom  15H    basis set group =>   2
Atom  16H    basis set group =>   2
Atom  17H    basis set group =>   2

-------------------------------------
AUXILIARY/J BASIS SET IN INPUT FORMAT
-------------------------------------

 # Auxiliary/J basis set for element : H 
 NewAuxJGTO H 
 S 3 
   1      15.6752927000      0.1007184237
   2       3.6063578000      0.3404257499
   3       1.2080016000      0.6491996172
 S 1 
   1       0.4726794000      1.0000000000
 S 1 
   1       0.2018100000      1.0000000000
 P 2 
   1       2.0281365000      0.5596620919
   2       0.5358730000      0.5596620919
 D 1 
   1       2.2165124000      1.0000000000
  end;

 # Auxiliary/J basis set for element : C 
 NewAuxJGTO C 
 S 7 
   1    1861.0916331000      0.0134602335
   2     642.9939764000      0.0299160374
   3     235.1105725000      0.1008649584
   4      90.7028894000      0.2370970548
   5      36.7794552000      0.3924037254
   6      15.6046273000      0.3195862154
   7       6.8907294000      0.0530104441
 S 1 
   1       3.1478850000     -1.0000000000
 S 1 
   1       1.4777287000      1.0000000000
 S 1 
   1       0.7076466000      1.0000000000
 S 1 
   1       0.3430122000      1.0000000000
 S 1 
   1       0.1669453000      1.0000000000
 P 2 
   1      13.5472892000     -0.6769313712
   2       5.4669419000     -0.3779500978
 P 1 
   1       2.1751721000      1.0000000000
 P 1 
   1       0.8582194000      1.0000000000
 P 1 
   1       0.3376720000      1.0000000000
 D 2 
   1       5.9287253000     -0.3533329857
   2       1.9809209000     -0.7456525731
 D 1 
   1       0.8055417000     -1.0000000000
 D 1 
   1       0.3531244000     -1.0000000000
 F 2 
   1       1.6755626000      0.6311076882
   2       0.5997536000      0.4968166032
 G 1 
   1       1.0024600000     -1.0000000000
  end;

 # Auxiliary/J basis set for element : O 
 NewAuxJGTO O 
 S 7 
   1    2876.8216605000      0.0168151159
   2    1004.7443032000      0.0340137548
   3     369.7579954000      0.1194951309
   4     142.9442404000      0.2664627624
   5      57.8366425000      0.4202764046
   6      24.3864983000      0.2765077335
   7      10.6622662000      0.0057008815
 S 1 
   1       4.8070437000     -1.0000000000
 S 1 
   1       2.2210770000      1.0000000000
 S 1 
   1       1.0447795000      1.0000000000
 S 1 
   1       0.4968425000      1.0000000000
 S 1 
   1       0.2371384000      1.0000000000
 P 2 
   1      64.2613382000     -0.2731534179
   2      16.3006076000     -0.8168011598
 P 1 
   1       4.3550542000      1.0000000000
 P 1 
   1       1.2019554000      1.0000000000
 P 1 
   1       0.3354196000      1.0000000000
 D 2 
   1       9.2146611000     -0.4661230638
   2       2.8435251000     -0.6600908911
 D 1 
   1       0.9955759000     -1.0000000000
 D 1 
   1       0.3649441000     -1.0000000000
 F 2 
   1       2.6420115000      0.5931563945
   2       0.7345613000      0.5931563945
 G 1 
   1       1.3931000000     -1.0000000000
  end;

------------------------------------------------------------------------------
                             ORCA STARTUP CALCULATIONS
                           -- RI-GTO INTEGRALS CHOSEN --
------------------------------------------------------------------------------
------------------------------------------------------------------------------
                   ___                                                        
                  /   \      - P O W E R E D   B Y -                         
                 /     \                                                     
                 |  |  |   _    _      __       _____    __    __             
                 |  |  |  | |  | |    /  \     |  _  \  |  |  /  |          
                  \  \/   | |  | |   /    \    | | | |  |  | /  /          
                 / \  \   | |__| |  /  /\  \   | |_| |  |  |/  /          
                |  |  |   |  __  | /  /__\  \  |    /   |      \           
                |  |  |   | |  | | |   __   |  |    \   |  |\   \          
                \     /   | |  | | |  |  |  |  | |\  \  |  | \   \       
                 \___/    |_|  |_| |__|  |__|  |_| \__\ |__|  \__/        
                                                                              
                      - O R C A' S   B I G   F R I E N D -                    
                                      &                                       
                       - I N T E G R A L  F E E D E R -                       
                                                                              
 v1 FN, 2020, v2 2021, v3 2022-2024                                           
------------------------------------------------------------------------------


----------------------
SHARK INTEGRAL PACKAGE
----------------------

Number of atoms                             ...     18
Number of basis functions                   ...    258
Number of shells                            ...    114
Maximum angular momentum                    ...      3
Integral batch strategy                     ... SHARK/LIBINT Hybrid
RI-J (if used) integral strategy            ... SPLIT-RIJ (Revised 2003 algorithm where possible)
Printlevel                                  ...      1
Contraction scheme used                     ... SEGMENTED contraction
Prescreening option                         ... SCHWARTZ
   Thresh                                   ... 2.500e-11
   Tcut                                     ... 2.500e-12
   Tpresel                                  ... 2.500e-12 
Coulomb Range Separation                    ... NOT USED
Exchange Range Separation                   ... NOT USED
Multipole approximations                    ... NOT USED
Finite Nucleus Model                        ... NOT USED
CABS basis                                  ... NOT available
Auxiliary Coulomb fitting basis             ... AVAILABLE
   # of basis functions in Aux-J            ...    426
   # of shells in Aux-J                     ...    150
   Maximum angular momentum in Aux-J        ...      4
Auxiliary J/K fitting basis                 ... NOT available
Auxiliary Correlation fitting basis         ... NOT available
Auxiliary 'external' fitting basis          ... NOT available

Checking pre-screening integrals            ... done (  0.0 sec) Dimension = 114
   => SHARK Basis and OBASIS are compatible. Storing Pre-screening
Shell pair information
Shell pair cut-off parameter TPreSel        ...   2.5e-12
Total number of shell pairs                 ...      6555
Shell pairs after pre-screening             ...      6046
Total number of primitive shell pairs       ...     18696
Primitive shell pairs kept                  ...     13400
          la=0 lb=0:   2009 shell pairs
          la=1 lb=0:   1823 shell pairs
          la=1 lb=1:    435 shell pairs
          la=2 lb=0:    736 shell pairs
          la=2 lb=1:    344 shell pairs
          la=2 lb=2:     76 shell pairs
          la=3 lb=0:    367 shell pairs
          la=3 lb=1:    167 shell pairs
          la=3 lb=2:     68 shell pairs
          la=3 lb=3:     21 shell pairs

Checking whether 4 symmetric matrices of dimension 258 fit in memory
:Max Core in MB      =  16384.00
 MB in use           =      9.17
 MB left             =  16374.83
 MB needed           =      1.02
 Data fit in memory  = YES
Calculating RI/J V-Matrix + Cholesky decomp.... done (  0.0 sec)
Calculating Nuclear repulsion               ... done (  0.0 sec) ENN=    255.744217960248 Eh

Diagonalization of the overlap matrix:
Smallest eigenvalue                        ... 1.379e-04
Time for diagonalization                   ...    0.009 sec
Threshold for overlap eigenvalues          ... 1.000e-07
Number of eigenvalues below threshold      ... 0
Time for construction of square roots      ...    0.012 sec
Total time needed                          ...    0.022 sec

-------------------
DFT GRID GENERATION
-------------------

General Integration Accuracy     IntAcc      ... 4.388
Radial Grid Type                 RadialGrid  ... OptM3 with GC (2021)
Angular Grid (max. ang.)         AngularGrid ... 4 (Lebedev-302)
Angular grid pruning method      GridPruning ... 4 (adaptive)
Weight generation scheme         WeightScheme... mBecke (2022)
Basis function cutoff            BFCut       ... 1.0000e-11
Integration weight cutoff        WCut        ... 1.0000e-14
Partially contracted basis set               ... off
Rotationally invariant grid construction     ... off
Angular grids for H and He will be reduced by one unit

Total number of grid points                  ...    74618
Total number of batches                      ...     1175
Average number of points per batch           ...       63
Average number of grid points per atom       ...     4145
Grids setup in   0.7 sec
Initializing property integral containers    ... done (  0.0 sec)

SHARK setup successfully completed in   1.1 seconds

Maximum memory used throughout the entire STARTUP-calculation: 38.7 MB
-------------------------------------------------------------------------------
                                 ORCA GUESS
                   Start orbitals & Density for SCF / CASSCF
-------------------------------------------------------------------------------

------------
SCF SETTINGS
------------
Hamiltonian:
 Density Functional     Method          .... DFT(GTOs)
 Exchange Functional    Exchange        .... PBE
   PBE kappa parameter   XKappa         ....  1.245000
   PBE mue parameter    XMuePBE         ....  0.219520
 Correlation Functional Correlation     .... PBE
   PBE beta parameter  CBetaPBE         ....  0.066725
 LDA part of GGA corr.  LDAOpt          .... PW91-LDA
 Gradients option       PostSCFGGA      .... off
   NL short-range parameter             ....  3.700000
 RI-approximation to the Coulomb term is turned on
   Number of AuxJ basis functions       .... 426


General Settings:
 Integral files         IntName         .... pentanol
 Hartree-Fock type      HFTyp           .... RHF
 Total Charge           Charge          ....    0
 Multiplicity           Mult            ....    1
 Number of Electrons    NEL             ....   50
 Basis Dimension        Dim             ....  258
 Nuclear Repulsion      ENuc            ....    255.7442179602 Eh

Convergence Acceleration:
 AO-DIIS                CNVDIIS         .... on
   Start iteration      DIISMaxIt       ....    12
   Startup error        DIISStart       ....  0.200000
   # of expansion vecs  DIISMaxEq       ....     5
   Bias factor          DIISBfac        ....   1.050
   Max. coefficient     DIISMaxC        ....  10.000
 MO-DIIS                CNVKDIIS        .... off
 Trust-Rad. Augm. Hess. CNVTRAH         .... auto
   Auto Start mean grad. ratio tolernc. ....  1.125000
   Auto Start start iteration           ....    50
   Auto Start num. interpolation iter.  ....    10
   Max. Number of Micro iterations      ....    24
   Max. Number of Macro iterations      .... Maxiter - #DIIS iter
   Number of Davidson start vectors     ....     2
   Converg. threshold    (grad. norm)   ....   1.000e-05
   Grad. Scal. Fac. for Micro threshold ....   0.100
   Minimum threshold for Micro iter.    ....   1.000e-02
   NR start threshold (gradient norm)   ....   1.000e-04
   Initial trust radius                 ....   0.400
   Minimum AH scaling param. (alpha)    ....   1.000
   Maximum AH scaling param. (alpha)    .... 1000.000
   Quad. conv. algorithm                .... NR
   White noise on init. David. guess    .... on
   Maximum white noise                  ....   0.010
   Pseudo random numbers                .... off
   Inactive MOs                         .... canonical
   Orbital update algorithm             .... Taylor
   Preconditioner                       .... Diag
   Full preconditioner red. dimension   ....   250
 SOSCF                 CNVSOSCF           .... on
   Start iteration     SOSCFMaxIt         ....   150
   Startup grad/error  SOSCFStart         ....  0.003300
   Hessian update      SOSCFHessUp        .... L-BFGS
   Autom. constraints  SOSCFAutoConstrain .... off
 Level Shifting         CNVShift        .... on
   Level shift para.    LevelShift      ....    0.2500
   Turn off err/grad.   ShiftErr        ....    0.0010
 Zerner damping         CNVZerner       .... off
 Static damping         CNVDamp         .... on
   Fraction old density DampFac         ....    0.7000
   Max. Damping (<1)    DampMax         ....    0.9800
   Min. Damping (>=0)   DampMin         ....    0.0000
   Turn off err/grad.   DampErr         ....    0.1000

SCF Procedure:
 Maximum # iterations   MaxIter         ....   125
 SCF integral mode      SCFMode         .... Direct
   Integral package                     .... SHARK and LIBINT hybrid scheme
 Reset frequency        DirectResetFreq ....    20
 Integral Threshold     Thresh          ....  2.500e-11 Eh
 Primitive CutOff       TCut            ....  2.500e-12 Eh

Convergence Tolerance:
 Convergence Check Mode ConvCheckMode   .... Total+1el-Energy
 Convergence forced     ConvForced      .... 0
 Energy Change          TolE            ....  1.000e-08 Eh
 1-El. energy change                    ....  1.000e-05 Eh
 Orbital Gradient       TolG            ....  1.000e-05
 Orbital Rotation angle TolX            ....  1.000e-05
 DIIS Error             TolErr          ....  5.000e-07

------------------------------
INITIAL GUESS: MODEL POTENTIAL
------------------------------
Loading Hartree-Fock densities                     ... done
Calculating cut-offs                               ... done
Initializing the effective Hamiltonian             ... done
Setting up the integral package (SHARK)            ... done
Starting the Coulomb interaction                   ... done (   0.2 sec)
Making the grid                                    ... done (   0.2 sec)
Mapping shells                                     ... done
Starting the XC term evaluation                    ... done (   0.3 sec)
  promolecular density results
     # of electrons  =     49.992435278
     EX              =    -37.519057012
     EC              =     -1.626960180
     EX+EC           =    -39.146017191
Transforming the Hamiltonian                       ... done (   0.0 sec)
Diagonalizing the Hamiltonian                      ... done (   0.0 sec)
Back transforming the eigenvectors                 ... done (   0.0 sec)
Now organizing SCF variables                       ... done
                      ------------------
                      INITIAL GUESS DONE (   0.7 sec)
                      ------------------
             **** ENERGY FILE WAS UPDATED (pentanol.en.tmp) ****
Finished Guess after   0.8 sec
Maximum memory used throughout the entire GUESS-calculation: 20.4 MB

-------------------------------------------------------------------------------------------
                                      ORCA LEAN-SCF
                              memory conserving SCF solver
-------------------------------------------------------------------------------------------

----------------------------------------D-I-I-S--------------------------------------------
Iteration    Energy (Eh)           Delta-E    RMSDP     MaxDP     DIISErr   Damp  Time(sec)
-------------------------------------------------------------------------------------------
               ***  Starting incremental Fock matrix formation  ***
    1    -272.7699040281851239     0.00e+00  1.82e-03  4.62e-02  2.46e-01  0.700   1.7
    2    -272.8819249348883886    -1.12e-01  1.40e-03  3.66e-02  8.73e-02  0.700   1.5
                               ***Turning on AO-DIIS***
    3    -272.9190311801338567    -3.71e-02  5.87e-04  1.48e-02  2.45e-02  0.700   1.6
    4    -272.9412340264819932    -2.22e-02  8.16e-04  1.79e-02  9.20e-03  0.000   1.8
    5    -272.9925641477135514    -5.13e-02  3.51e-04  1.09e-02  1.19e-02  0.000   1.4
                              *** Initializing SOSCF ***
---------------------------------------S-O-S-C-F--------------------------------------
Iteration    Energy (Eh)           Delta-E    RMSDP     MaxDP     MaxGrad    Time(sec)
--------------------------------------------------------------------------------------
    6    -272.9932903761765601    -7.26e-04  1.50e-04  4.06e-03  2.54e-03     1.6
               *** Restarting incremental Fock matrix formation ***
    7    -272.9933528314104478    -6.25e-05  1.34e-04  4.48e-03  4.48e-04     1.8
    8    -272.9933485549557872     4.28e-06  2.68e-05  8.97e-04  4.40e-04     1.4
    9    -272.9933594152917067    -1.09e-05  2.27e-05  5.91e-04  6.89e-05     1.6
   10    -272.9933592381279368     1.77e-07  6.23e-06  1.58e-04  9.35e-05     1.9
   11    -272.9933598035654541    -5.65e-07  4.42e-06  1.12e-04  1.28e-05     1.3
   12    -272.9933598123151341    -8.75e-09  1.64e-06  4.86e-05  8.19e-06     1.2
                 **** Energy Check signals convergence ****

               *****************************************************
               *                     SUCCESS                       *
               *           SCF CONVERGED AFTER  12 CYCLES          *
               *****************************************************

             **** ENERGY FILE WAS UPDATED (pentanol.en.tmp) ****

----------------
TOTAL SCF ENERGY
----------------

Total Energy       :       -272.99335981836202 Eh           -7428.52698 eV

Components:
Nuclear Repulsion  :        255.74421796024831 Eh            6959.15397 eV
Electronic Energy  :       -528.73757777861033 Eh          -14387.68095 eV
One Electron Energy:       -875.27679549391451 Eh          -23817.49246 eV
Two Electron Energy:        346.53921771530418 Eh            9429.81152 eV

Virial components:
Potential Energy   :       -544.87995748648643 Eh          -14826.93743 eV
Kinetic Energy     :        271.88659766812441 Eh            7398.41045 eV
Virial Ratio       :          2.00407067564098

DFT components:
N(Alpha)           :       24.999987976034 electrons
N(Beta)            :       24.999987976034 electrons
N(Total)           :       49.999975952069 electrons
E(X)               :      -38.567526130840 Eh       
E(C)               :       -1.628068359554 Eh       
E(XC)              :      -40.195594490394 Eh       

---------------
SCF CONVERGENCE
---------------

  Last Energy change         ...    8.7497e-09  Tolerance :   1.0000e-08
  Last MAX-Density change    ...    4.8557e-05  Tolerance :   1.0000e-07
  Last RMS-Density change    ...    1.6367e-06  Tolerance :   5.0000e-09
  Last DIIS Error            ...    2.5432e-03  Tolerance :   5.0000e-07
  Last Orbital Gradient      ...    8.1914e-06  Tolerance :   1.0000e-05
  Last Orbital Rotation      ...    1.6796e-05  Tolerance :   1.0000e-05


----------------
ORBITAL ENERGIES
----------------

  NO   OCC          E(Eh)            E(eV) 
   0   2.0000     -18.752954      -510.2938 
   1   2.0000      -9.938128      -270.4302 
   2   2.0000      -9.886239      -269.0182 
   3   2.0000      -9.882330      -268.9119 
   4   2.0000      -9.879551      -268.8363 
   5   2.0000      -9.876472      -268.7525 
   6   2.0000      -0.931277       -25.3413 
   7   2.0000      -0.722664       -19.6647 
   8   2.0000      -0.677378       -18.4324 
   9   2.0000      -0.614334       -16.7169 
  10   2.0000      -0.545733       -14.8501 
  11   2.0000      -0.524941       -14.2844 
  12   2.0000      -0.434508       -11.8236 
  13   2.0000      -0.424282       -11.5453 
  14   2.0000      -0.394993       -10.7483 
  15   2.0000      -0.383780       -10.4432 
  16   2.0000      -0.363524        -9.8920 
  17   2.0000      -0.347611        -9.4590 
  18   2.0000      -0.339002        -9.2247 
  19   2.0000      -0.316565        -8.6142 
  20   2.0000      -0.306285        -8.3344 
  21   2.0000      -0.286326        -7.7913 
  22   2.0000      -0.284285        -7.7358 
  23   2.0000      -0.270434        -7.3589 
  24   2.0000      -0.218585        -5.9480 
  25   0.0000       0.008481         0.2308 
  26   0.0000       0.031001         0.8436 
  27   0.0000       0.039972         1.0877 
  28   0.0000       0.056337         1.5330 
  29   0.0000       0.070035         1.9057 
  30   0.0000       0.078590         2.1385 
  31   0.0000       0.093526         2.5450 
  32   0.0000       0.093957         2.5567 
  33   0.0000       0.103957         2.8288 
  34   0.0000       0.108683         2.9574 
  35   0.0000       0.115885         3.1534 
*Only the first 10 virtual orbitals were printed.
------------------
MOLECULAR ORBITALS (RHF, ROHF)
------------------
                      0         1         2         3         4         5   
                 -18.75295  -9.93813  -9.88624  -9.88233  -9.87955  -9.87647
                   2.00000   2.00000   2.00000   2.00000   2.00000   2.00000
                  --------  --------  --------  --------  --------  --------
  0C   1s        -0.000001  0.000421 -0.000144  0.000290 -0.467953  0.000023
  0C   2s         0.000001  0.000624 -0.000168  0.000360 -0.606741  0.000034
  0C   3s         0.000123  0.000121 -0.000267 -0.000586 -0.038945  0.000032
  0C   4s         0.001280  0.003541  0.000180  0.003887  0.020057 -0.000242
  0C   5s         0.004799 -0.015707 -0.002702  0.004260 -0.035700 -0.001390
  0C   1pz        0.000007  0.000063 -0.000048 -0.000052 -0.000004  0.000008
  0C   1px       -0.000021  0.000256 -0.000061 -0.000052 -0.000328 -0.000003
  0C   1py        0.000114  0.000104 -0.000029 -0.000088 -0.000152  0.000008
  0C   2pz       -0.000003  0.000327  0.000189  0.001134  0.000240 -0.000145
  0C   2px        0.000902 -0.000208 -0.001027  0.002174  0.001559 -0.000101
  0C   2py        0.000523  0.000779  0.000183  0.001963  0.000708 -0.000225
  0C   3pz        0.000149 -0.001607  0.000764  0.000100 -0.000129 -0.000142
  0C   3px        0.001470 -0.003815 -0.001075  0.001827 -0.003180 -0.000873
  0C   3py        0.001749 -0.003506  0.000052  0.000392 -0.000297 -0.000069
  0C   1dz2      -0.000074  0.000089  0.000078 -0.000041  0.000021 -0.000006
  0C   1dxz       0.000035 -0.000048 -0.000000  0.000032  0.000006  0.000004
  0C   1dyz      -0.000043 -0.000103 -0.000025  0.000027  0.000029  0.000001
  0C   1dx2y2    -0.000103 -0.000057 -0.000137  0.000029  0.000041  0.000006
  0C   1dxy       0.000003 -0.000106  0.000032  0.000056 -0.000001 -0.000004
  0C   2dz2       0.000455  0.000222 -0.000158 -0.000400 -0.000422  0.000040
  0C   2dxz      -0.000250 -0.000776 -0.000136  0.000438  0.000256 -0.000100
  0C   2dyz       0.000563  0.000113  0.000445  0.000500  0.000229 -0.000044
  0C   2dx2y2     0.001250 -0.000141  0.000245  0.000248  0.000019  0.000002
  0C   2dxy       0.000084 -0.001163 -0.000336  0.000834  0.000767 -0.000104
  0C   1f0        0.000040  0.000231 -0.000047 -0.000075  0.001458  0.000008
  0C   1f+1      -0.000017  0.000289  0.000034 -0.000021 -0.000020 -0.000012
  0C   1f-1       0.000076  0.000193 -0.000016 -0.000021 -0.000109  0.000008
  0C   1f+2       0.000013 -0.000209  0.000046  0.000009  0.000072 -0.000015
  0C   1f-2       0.000034 -0.000658  0.000043  0.000103  0.000289 -0.000014
  0C   1f+3      -0.000180 -0.000160  0.000069  0.000070 -0.000282 -0.000030
  0C   1f-3      -0.000052  0.000636 -0.000050 -0.000090  0.001141  0.000012
  1C   1s         0.000020  0.468091 -0.000461 -0.000033  0.000458  0.000011
  1C   2s        -0.000093  0.606710 -0.000513 -0.000103  0.000521  0.000032
  1C   3s        -0.002189  0.039576 -0.000096  0.000889 -0.000386  0.000286
  1C   4s         0.007979 -0.023910  0.002869 -0.002458 -0.000695 -0.002288
  1C   5s        -0.025436  0.049732 -0.006390 -0.006453 -0.000978 -0.004153
  1C   1pz        0.000116 -0.000578 -0.000045 -0.000055  0.000038 -0.000041
  1C   1px        0.000050 -0.000150  0.000252 -0.000039  0.000322  0.000063
  1C   1py       -0.000356  0.000298 -0.000170 -0.000128  0.000289 -0.000051
  1C   2pz       -0.002097  0.002944 -0.000552  0.000639  0.000047  0.000940
  1C   2px       -0.000994  0.001022  0.000485  0.002630 -0.001953 -0.002324
  1C   2py        0.006669  0.002429  0.000546  0.001725 -0.001542  0.000873
  1C   3pz        0.004287 -0.001392 -0.001898  0.001209  0.002078  0.000600
  1C   3px       -0.001413  0.003033 -0.003916  0.000661 -0.005904 -0.002374
  1C   3py       -0.000959 -0.004222  0.001636  0.001629 -0.002538 -0.000161
  1C   1dz2      -0.000203 -0.000066  0.000069 -0.000120 -0.000084  0.000029
  1C   1dxz       0.000006  0.000034  0.000032  0.000046  0.000051  0.000017
  1C   1dyz      -0.000161 -0.000139 -0.000068  0.000013  0.000056  0.000011
  1C   1dx2y2    -0.000407 -0.000137 -0.000054  0.000150  0.000052 -0.000054
  1C   1dxy      -0.000106 -0.000021 -0.000040  0.000098  0.000043  0.000021
  1C   2dz2      -0.001245  0.001685  0.000034  0.000732 -0.000434  0.000271
  1C   2dxz       0.000552 -0.000267  0.000691 -0.000612  0.001222  0.000652
  1C   2dyz      -0.003015 -0.000684 -0.000197 -0.000770  0.000884 -0.000362
  1C   2dx2y2    -0.002747 -0.001374 -0.000928 -0.000805  0.000713 -0.000392
  1C   2dxy      -0.000690 -0.000929  0.001002 -0.001254  0.002537  0.000681
  1C   1f0        0.000351  0.001343 -0.000263 -0.000068  0.000254 -0.000031
  1C   1f+1       0.000025  0.000040  0.000262 -0.000081  0.000331  0.000017
  1C   1f-1      -0.000247 -0.000228 -0.000186 -0.000053  0.000296 -0.000007
  1C   1f+2       0.000532  0.000361  0.000543  0.000129 -0.000273  0.000057
  1C   1f-2       0.000127  0.000159 -0.000499  0.000047 -0.000812 -0.000090
  1C   1f+3      -0.000225 -0.000302  0.000218 -0.000067 -0.000150 -0.000007
  1C   1f-3       0.000528  0.000742 -0.000535 -0.000166  0.000616 -0.000054
  2H   1s        -0.000089  0.000016  0.000125  0.000015  0.000501 -0.000028
  2H   2s        -0.000006 -0.000309 -0.000273  0.000062  0.003295  0.000152
  2H   3s         0.000369  0.000671  0.000771 -0.000213  0.006247 -0.000057
  2H   1pz        0.000014 -0.000021 -0.000078  0.000025  0.002355  0.000010
  2H   1px        0.000056 -0.000290 -0.000136  0.000020  0.000215  0.000002
  2H   1py        0.000218 -0.000108  0.000021  0.000018  0.000055  0.000010
  3H   1s         0.000089  0.000032  0.000094  0.000029  0.000546 -0.000021
  3H   2s         0.001226 -0.000097  0.000070  0.000092  0.002904  0.000136
  3H   3s         0.000137 -0.000166  0.000575 -0.000276  0.006228  0.000068
  3H   1pz       -0.000084 -0.000104  0.000072 -0.000005 -0.000736  0.000002
  3H   1px        0.000006 -0.000307 -0.000105  0.000011 -0.000096  0.000003
  3H   1py        0.000164 -0.000033 -0.000014  0.000033  0.002224  0.000008
  4H   1s        -0.000031 -0.000167 -0.000074  0.000010  0.000621 -0.000004
  4H   2s        -0.000240 -0.000902 -0.001035 -0.000241  0.002985  0.000073
  4H   3s         0.000050  0.001274 -0.000498  0.000394  0.004408 -0.000399
  4H   1pz       -0.000074 -0.000084  0.000086 -0.000018 -0.000821 -0.000015
  4H   1px        0.000050 -0.000330 -0.000200 -0.000097  0.002057  0.000024
  4H   1py        0.000166 -0.000132  0.000071 -0.000023 -0.000929 -0.000007
  5C   1s        -0.000003  0.000425  0.467949  0.006096 -0.000135  0.000186
  5C   2s         0.000013  0.000636  0.606610  0.007828 -0.000202  0.000292
  5C   3s        -0.000359  0.000359  0.041111  0.000331  0.000389 -0.000635
  5C   4s         0.003314  0.002235 -0.028058 -0.002985 -0.001222  0.001970
  5C   5s         0.007251 -0.022074  0.045150  0.019522  0.006156 -0.003074
  5C   1pz       -0.000019  0.000067  0.000222 -0.000066  0.000043 -0.000036
  5C   1px       -0.000088 -0.000335 -0.000050 -0.000244  0.000122  0.000096
  5C   1py        0.000088  0.000070  0.000386 -0.000116  0.000053 -0.000041
  5C   2pz        0.000352 -0.000258 -0.002446 -0.000055 -0.000336  0.000512
  5C   2px       -0.000084  0.001403  0.000648 -0.000187 -0.003068 -0.002965
  5C   2py        0.001156  0.000141 -0.003417 -0.000055 -0.000747  0.000386
  5C   3pz        0.000093 -0.004081  0.001381  0.003090 -0.001508  0.000857
  5C   3px       -0.003277  0.005807  0.001717  0.005546 -0.006349 -0.005056
  5C   3py        0.002517 -0.003304  0.001541  0.004303 -0.000662  0.000616
  5C   1dz2      -0.000052  0.000078 -0.000021 -0.000073 -0.000083  0.000083
  5C   1dxz      -0.000014  0.000030  0.000016 -0.000020  0.000011  0.000044
  5C   1dyz      -0.000039 -0.000079  0.000003  0.000079  0.000068 -0.000032
  5C   1dx2y2    -0.000125 -0.000077 -0.000004  0.000077  0.000083 -0.000134
  5C   1dxy      -0.000054 -0.000006 -0.000026 -0.000005  0.000101  0.000044
  5C   2dz2       0.000180  0.000587  0.001553 -0.000322  0.000454 -0.000542
  5C   2dxz       0.000340  0.001206 -0.000005  0.000963 -0.000702 -0.000821
  5C   2dyz       0.000751 -0.000158 -0.001273  0.000362 -0.000690  0.000509
  5C   2dx2y2     0.001646 -0.000981 -0.001799  0.000192  0.000059  0.000714
  5C   2dxy       0.000700  0.001535 -0.000112  0.001363 -0.001199 -0.000975
  5C   1f0       -0.000031  0.000295 -0.001128 -0.000325  0.000024 -0.000030
  5C   1f+1      -0.000013 -0.000281 -0.000043 -0.000224  0.000067  0.000068
  5C   1f-1       0.000026  0.000118  0.000342 -0.000194  0.000025 -0.000025
  5C   1f+2       0.000069 -0.000503 -0.000331  0.000292 -0.000027  0.000065
  5C   1f-2       0.000029  0.000523 -0.000074  0.000660 -0.000013  0.000003
  5C   1f+3       0.000183 -0.000267  0.000208  0.000140  0.000060  0.000110
  5C   1f-3       0.000039  0.000650 -0.000625 -0.000655  0.000107 -0.000066
  6H   1s        -0.000015 -0.000033  0.000078 -0.000026  0.000027 -0.000552
  6H   2s        -0.000402 -0.000071  0.000136  0.000329 -0.000190 -0.002885
  6H   3s         0.000234  0.000610  0.000527 -0.000089 -0.000058 -0.006383
  6H   1pz        0.000031  0.000016  0.000048  0.000090 -0.000001  0.000715
  6H   1px        0.000054  0.000028  0.000110 -0.000325  0.000001  0.000294
  6H   1py       -0.000075 -0.000035  0.000002  0.000046 -0.000006 -0.002163
  7O   1s         0.435991 -0.000004 -0.000000  0.000000  0.000000  0.000001
  7O   2s         0.638238 -0.000095  0.000008 -0.000000 -0.000005 -0.000011
  7O   3s         0.038623  0.001083 -0.000091  0.000108  0.000017  0.000111
  7O   4s        -0.032242 -0.001447  0.000456 -0.000702 -0.000141 -0.000381
  7O   5s         0.015602 -0.002896 -0.002939  0.000107  0.003808  0.000668
  7O   1pz       -0.000822  0.000225  0.000041 -0.000018 -0.000022 -0.000003
  7O   1px        0.000250  0.000077  0.000065 -0.000043  0.000011  0.000008
  7O   1py       -0.001866 -0.000532 -0.000042 -0.000014  0.000080 -0.000014
  7O   2pz        0.000583 -0.001314 -0.000390  0.000132  0.000307  0.000001
  7O   2px       -0.000747 -0.000377 -0.000409  0.000090 -0.000121 -0.000031
  7O   2py        0.005788  0.002631  0.000383  0.000288 -0.000737  0.000117
  7O   3pz        0.000000 -0.002235  0.000081  0.000330  0.000344 -0.000076
  7O   3px        0.000392 -0.000018 -0.000263  0.000013 -0.000121  0.000062
  7O   3py       -0.002429 -0.000190  0.001178 -0.000121 -0.001238 -0.000193
  7O   1dz2       0.000093 -0.000116 -0.000014  0.000025  0.000002 -0.000008
  7O   1dxz       0.000011  0.000021  0.000027 -0.000025  0.000031  0.000010
  7O   1dyz      -0.000123 -0.000160 -0.000010  0.000011  0.000020 -0.000001
  7O   1dx2y2    -0.000211 -0.000177 -0.000014 -0.000027  0.000023  0.000004
  7O   1dxy      -0.000058 -0.000046 -0.000032  0.000012 -0.000015  0.000005
  7O   2dz2      -0.000178  0.001124  0.000225 -0.000154 -0.000181  0.000043
  7O   2dxz      -0.000085 -0.000149 -0.000155  0.000105 -0.000173 -0.000043
  7O   2dyz       0.000740  0.001178  0.000049 -0.000037 -0.000118  0.000002
  7O   2dx2y2     0.001307  0.001555  0.000072  0.000164 -0.000229 -0.000005
  7O   2dxy       0.000347  0.000411  0.000277 -0.000032  0.000173 -0.000019
  7O   1f0        0.000353  0.000150 -0.000020  0.000009  0.000019 -0.000001
  7O   1f+1       0.000018  0.000032  0.000027  0.000005  0.000008 -0.000002
  7O   1f-1      -0.000112 -0.000235 -0.000038 -0.000001  0.000042 -0.000001
  7O   1f+2       0.000120  0.000409 -0.000032 -0.000000  0.000010 -0.000003
  7O   1f-2       0.000032  0.000102  0.000031 -0.000017  0.000058  0.000004
  7O   1f+3      -0.000077 -0.000210 -0.000048 -0.000004 -0.000041  0.000005
  7O   1f-3       0.000188  0.000508 -0.000017  0.000022 -0.000036  0.000003
  8C   1s         0.000001 -0.000040  0.006063 -0.467951 -0.000288 -0.004599
  8C   2s        -0.000006  0.000007  0.007930 -0.606586 -0.000393 -0.005905
  8C   3s         0.000372 -0.000888  0.000841 -0.041027 -0.000267  0.000357
  8C   4s        -0.002467  0.002369  0.001645  0.028011  0.002062  0.000361
  8C   5s        -0.000754  0.008078 -0.012512 -0.052497  0.002831 -0.005514
  8C   1pz       -0.000039  0.000055 -0.000088  0.000350  0.000048 -0.000073
  8C   1px        0.000025 -0.000059 -0.000259 -0.000116  0.000058  0.000368
  8C   1py       -0.000057  0.000082 -0.000104  0.000538  0.000034 -0.000084
  8C   2pz        0.000875 -0.000515 -0.000044 -0.002674 -0.000807  0.000407
  8C   2px        0.000373  0.003007 -0.000415  0.001284 -0.002263 -0.002067
  8C   2py        0.001286 -0.000829 -0.000145 -0.003706 -0.001013  0.000464
  8C   3pz        0.001757 -0.000889  0.001416  0.002083  0.000522  0.001486
  8C   3px       -0.001084  0.002163  0.004230  0.001284 -0.002458 -0.006654
  8C   3py        0.000005 -0.002662  0.002988  0.003135 -0.000521  0.001640
  8C   1dz2      -0.000037  0.000101  0.000073  0.000015 -0.000028  0.000080
  8C   1dxz       0.000049  0.000082  0.000012  0.000018  0.000008  0.000045
  8C   1dyz       0.000007 -0.000019 -0.000099 -0.000056 -0.000002 -0.000071
  8C   1dx2y2    -0.000033 -0.000160 -0.000053  0.000001  0.000042 -0.000102
  8C   1dxy      -0.000092  0.000035 -0.000025  0.000010  0.000040  0.000044
  8C   2dz2       0.000756 -0.000517  0.000308 -0.001546 -0.000248  0.000745
  8C   2dxz      -0.000225 -0.000999 -0.000815 -0.000404  0.000669  0.001513
  8C   2dyz      -0.000342  0.000515 -0.000201  0.001514  0.000313 -0.000558
  8C   2dx2y2     0.000034  0.000950 -0.000461  0.001820  0.000116 -0.001096
  8C   2dxy      -0.000074 -0.001003 -0.001034 -0.000193  0.000764  0.001895
  8C   1f0        0.000030  0.000077 -0.000299 -0.001141  0.000026 -0.000329
  8C   1f+1      -0.000017 -0.000089 -0.000229 -0.000039  0.000015  0.000356
  8C   1f-1       0.000004  0.000037 -0.000187  0.000209  0.000001 -0.000164
  8C   1f+2      -0.000016 -0.000096  0.000323 -0.000372 -0.000009  0.000516
  8C   1f-2       0.000005  0.000035  0.000633 -0.000000 -0.000110 -0.000667
  8C   1f+3       0.000032 -0.000116  0.000111  0.000117 -0.000021  0.000196
  8C   1f-3      -0.000139  0.000099 -0.000656 -0.000636  0.000043 -0.000694
  9H   1s        -0.000044  0.000013 -0.000519 -0.000012 -0.000110  0.000069
  9H   2s        -0.000319 -0.000777 -0.003801  0.000505 -0.000248  0.000427
  9H   3s         0.000447  0.000178 -0.006995  0.000107 -0.001497  0.001016
  9H   1pz       -0.000031 -0.000106 -0.002323  0.000042  0.000022  0.000014
  9H   1px       -0.000074  0.000266  0.000034  0.000256 -0.000030 -0.000041
  9H   1py        0.000183 -0.000104 -0.000030  0.000171 -0.000048  0.000062
 10H   1s         0.000081 -0.000032 -0.000568 -0.000009 -0.000074  0.000064
 10H   2s         0.001603 -0.000075 -0.003605  0.000485 -0.000035  0.000322
 10H   3s         0.000241  0.000416 -0.006679 -0.000184 -0.000795  0.000881
 10H   1pz       -0.000062 -0.000113  0.000577  0.000121 -0.000098  0.000068
 10H   1px       -0.000017  0.000276  0.000220  0.000275 -0.000052 -0.000057
 10H   1py        0.000218 -0.000004 -0.002233  0.000099  0.000021  0.000008
 11C   1s         0.000003 -0.000015 -0.000136 -0.004567  0.000021  0.467947
 11C   2s        -0.000012 -0.000003 -0.000136 -0.005988  0.000024  0.606742
 11C   3s        -0.000098  0.000577 -0.000476 -0.000296 -0.000077  0.038661
 11C   4s         0.000646 -0.003832  0.001026 -0.004189  0.000470 -0.019463
 11C   5s         0.002793 -0.005825 -0.001324  0.014566  0.002480  0.038105
 11C   1pz       -0.000066  0.000041 -0.000030 -0.000060 -0.000006  0.000087
 11C   1px        0.000021 -0.000067  0.000117  0.000231  0.000014 -0.000345
 11C   1py        0.000023  0.000086 -0.000028 -0.000065 -0.000016  0.000106
 11C   2pz        0.000757 -0.000970  0.000305 -0.000630  0.000235 -0.000245
 11C   2px       -0.000592  0.002529  0.000488  0.000643 -0.000379  0.001335
 11C   2py       -0.000090 -0.001490  0.000496 -0.000855  0.000305 -0.000266
 11C   3pz       -0.000610 -0.000917  0.000610  0.001873 -0.000087  0.000175
 11C   3px       -0.001017  0.002076  0.000788 -0.004246 -0.001466 -0.004109
 11C   3py        0.000302 -0.000041  0.000665  0.002289 -0.000081 -0.000053
 11C   1dz2      -0.000010  0.000042  0.000073 -0.000075  0.000011  0.000001
 11C   1dxz       0.000004  0.000017 -0.000033 -0.000065 -0.000005 -0.000002
 11C   1dyz       0.000004 -0.000017  0.000001  0.000088  0.000010  0.000021
 11C   1dx2y2     0.000010 -0.000066 -0.000126  0.000078 -0.000010 -0.000015
 11C   1dxy      -0.000029  0.000034 -0.000071 -0.000074 -0.000009 -0.000002
 11C   2dz2      -0.000351  0.000291 -0.000215 -0.000025 -0.000175  0.000209
 11C   2dxz      -0.000233  0.000607  0.000122 -0.000713 -0.000088  0.000474
 11C   2dyz      -0.000012 -0.000357  0.000396 -0.000242  0.000003 -0.000259
 11C   2dx2y2     0.000129 -0.000461  0.000225  0.000305  0.000144 -0.000255
 11C   2dxy       0.000055  0.000723  0.000294 -0.000958 -0.000140  0.000603
 11C   1f0       -0.000014  0.000074 -0.000033 -0.000230 -0.000006 -0.001448
 11C   1f+1      -0.000006 -0.000028 -0.000034  0.000282  0.000000 -0.000048
 11C   1f-1       0.000021  0.000022 -0.000019 -0.000152 -0.000012  0.000084
 11C   1f+2       0.000025 -0.000046  0.000052  0.000470  0.000019 -0.000153
 11C   1f-2      -0.000010  0.000085 -0.000017 -0.000572 -0.000007  0.000259
 11C   1f+3       0.000050  0.000013 -0.000035  0.000129 -0.000008  0.000335
 11C   1f-3      -0.000030  0.000103 -0.000077 -0.000579 -0.000039 -0.001119
 12H   1s         0.000052  0.000092  0.000029  0.000592  0.000004  0.000017
 12H   2s         0.000157  0.000379 -0.000614  0.003738  0.000044 -0.000997
 12H   3s         0.000199 -0.000134 -0.000404  0.006780  0.000209 -0.001097
 12H   1pz        0.000038 -0.000053  0.000115  0.000612 -0.000004  0.000143
 12H   1px       -0.000027  0.000050  0.000309  0.000127  0.000004 -0.000280
 12H   1py        0.000001 -0.000005  0.000131 -0.002222 -0.000024  0.000128
 13H   1s        -0.000085  0.000110 -0.000010  0.000581  0.000027  0.000020
 13H   2s        -0.000737 -0.000315 -0.000332  0.003636  0.000113 -0.001002
 13H   3s        -0.000725 -0.000214  0.000025  0.006878 -0.000656 -0.001115
 13H   1pz        0.000111  0.000088  0.000047 -0.002290 -0.000050  0.000091
 13H   1px        0.000013  0.000082  0.000310  0.000016 -0.000023 -0.000283
 13H   1py        0.000016 -0.000036  0.000151 -0.000106 -0.000007  0.000163
 14H   1s         0.000060 -0.000003  0.000077 -0.000028  0.000036 -0.000553
 14H   2s         0.000369  0.000066 -0.000006  0.000346 -0.000068 -0.002870
 14H   3s        -0.000912 -0.000163  0.000730 -0.000109 -0.000170 -0.006371
 14H   1pz        0.000106  0.000009 -0.000044  0.000038  0.000012 -0.002291
 14H   1px       -0.000033  0.000032  0.000104 -0.000329  0.000004  0.000142
 14H   1py        0.000010  0.000000  0.000058  0.000085 -0.000007 -0.000005
 15H   1s        -0.000011 -0.000029 -0.000065  0.000125 -0.000002 -0.000641
 15H   2s        -0.000122  0.000112 -0.001005  0.001267 -0.000098 -0.002932
 15H   3s         0.000163 -0.000128 -0.000719 -0.001004  0.000611 -0.004231
 15H   1pz        0.000049  0.000031  0.000065  0.000072  0.000024  0.000836
 15H   1px        0.000017 -0.000073  0.000164 -0.000413  0.000018  0.001828
 15H   1py       -0.000012  0.000020  0.000110  0.000069  0.000020  0.001291
 16H   1s        -0.000021 -0.000656 -0.000001 -0.000128 -0.000008 -0.000011
 16H   2s         0.001405 -0.004710 -0.000082  0.000124  0.000604 -0.000202
 16H   3s         0.001912 -0.006339  0.001145 -0.000029  0.000178  0.000189
 16H   1pz       -0.000022  0.002508 -0.000007 -0.000048 -0.000051  0.000055
 16H   1px       -0.000008  0.000017 -0.000322  0.000085 -0.000237 -0.000018
 16H   1py        0.000079  0.000082  0.000108  0.000066 -0.000203  0.000027
 17H   1s         0.000870 -0.000176  0.000021  0.000013 -0.000046 -0.000002
 17H   2s         0.001353 -0.002419 -0.000514  0.000514  0.000529 -0.000076
 17H   3s        -0.000690 -0.001035 -0.000541  0.000021  0.000794  0.000129
 17H   1pz        0.001097 -0.000507 -0.000241  0.000166  0.000195 -0.000005
 17H   1px       -0.000016 -0.000036 -0.000161  0.000004 -0.000087 -0.000007
 17H   1py       -0.000010  0.000181  0.000203 -0.000009 -0.000243 -0.000013
                      6         7         8         9        10        11   
                  -0.93128  -0.72266  -0.67738  -0.61433  -0.54573  -0.52494
                   2.00000   2.00000   2.00000   2.00000   2.00000   2.00000
                  --------  --------  --------  --------  --------  --------
  0C   1s        -0.008905 -0.023587  0.060972 -0.054972  0.038142 -0.005775
  0C   2s        -0.018342 -0.049374  0.128036 -0.115873  0.080631 -0.012216
  0C   3s         0.026672  0.074533 -0.196778  0.179774 -0.124110  0.019876
  0C   4s         0.024146  0.084621 -0.216596  0.205965 -0.165212  0.018266
  0C   5s         0.003479  0.013804 -0.009920  0.025242 -0.024565  0.018188
  0C   1pz        0.001637  0.005502 -0.010285 -0.001446  0.042131  0.017247
  0C   1px        0.010150  0.020159 -0.025494 -0.019648  0.050770 -0.022738
  0C   1py        0.012873  0.004903 -0.012242 -0.000244  0.043856  0.011402
  0C   2pz        0.000531  0.004815 -0.006996 -0.001538  0.027488  0.011418
  0C   2px        0.005638  0.018458 -0.019941 -0.011902  0.026151 -0.019500
  0C   2py        0.007594  0.004360 -0.008124  0.000729  0.025498  0.006357
  0C   3pz        0.000852  0.001453 -0.004072  0.001106  0.009525  0.003599
  0C   3px        0.001065  0.006153  0.002833 -0.006037  0.009870 -0.001533
  0C   3py        0.002628  0.001054 -0.000949 -0.000602  0.007620  0.002445
  0C   1dz2      -0.000754 -0.000725  0.000956  0.000396 -0.001496  0.000290
  0C   1dxz       0.000016  0.000797 -0.001325  0.000028  0.001964  0.000182
  0C   1dyz       0.000265  0.000278 -0.000695  0.000244  0.002033  0.000947
  0C   1dx2y2    -0.000382  0.001160 -0.000991 -0.001067  0.000681 -0.001246
  0C   1dxy       0.001264  0.000965 -0.001621 -0.000335  0.002877 -0.000349
  0C   2dz2      -0.001502 -0.000751 -0.000121  0.000789  0.002968  0.002923
  0C   2dxz       0.000188  0.002026 -0.003104  0.001163  0.002678  0.001779
  0C   2dyz      -0.000956  0.000845 -0.001222 -0.000164  0.002381  0.000681
  0C   2dx2y2    -0.002543  0.003420 -0.001731 -0.002106 -0.002268 -0.003666
  0C   2dxy       0.002039  0.002229 -0.003473  0.002062  0.000638  0.000521
  0C   1f0       -0.000183 -0.001086  0.002814 -0.002632  0.001302 -0.000680
  0C   1f+1      -0.000287 -0.000274  0.000362 -0.000181  0.000779  0.000527
  0C   1f-1      -0.000427  0.000066 -0.000026 -0.000088  0.000201  0.000132
  0C   1f+2      -0.000230  0.000183 -0.000199  0.000011 -0.000319 -0.000297
  0C   1f-2      -0.000227  0.000237 -0.000501  0.000473  0.000272  0.000491
  0C   1f+3       0.000971 -0.000237 -0.000519  0.001193  0.000153  0.000912
  0C   1f-3      -0.000030 -0.001157  0.002581 -0.002253  0.002053  0.000108
  1C   1s        -0.038097 -0.035289  0.047519  0.006928 -0.055113 -0.008101
  1C   2s        -0.079280 -0.074010  0.099993  0.014710 -0.117031 -0.017149
  1C   3s         0.123185  0.114535 -0.156574 -0.024245  0.188992  0.027287
  1C   4s         0.113143  0.122812 -0.172055 -0.024949  0.241876  0.049533
  1C   5s        -0.012554 -0.009597  0.000671  0.007275  0.016944 -0.025597
  1C   1pz       -0.029861 -0.003082  0.002193 -0.000368  0.072502  0.057660
  1C   1px       -0.009260  0.028592  0.033828 -0.098714  0.009001 -0.037896
  1C   1py        0.068490 -0.043091  0.052994 -0.008121  0.064079  0.059468
  1C   2pz       -0.020319 -0.003241  0.004327  0.000544  0.041462  0.037555
  1C   2px       -0.004669  0.021210  0.025939 -0.065523  0.006528 -0.018911
  1C   2py        0.033394 -0.024861  0.033820 -0.005604  0.037421  0.037121
  1C   3pz       -0.006686 -0.000023  0.008301 -0.004343  0.002511  0.009572
  1C   3px       -0.005033  0.004248  0.011770 -0.010949 -0.003875 -0.011212
  1C   3py        0.003162 -0.003892  0.010806 -0.002332  0.006401  0.010632
  1C   1dz2      -0.002898 -0.000681  0.000352 -0.000073  0.000893 -0.000436
  1C   1dxz       0.000727 -0.001127 -0.000944  0.003644 -0.000752  0.001937
  1C   1dyz      -0.005386  0.002559 -0.002984  0.000031 -0.000047 -0.001183
  1C   1dx2y2    -0.006617  0.003871 -0.002482 -0.000964 -0.003642 -0.001397
  1C   1dxy      -0.001779  0.000275 -0.002027  0.003409 -0.001820  0.001729
  1C   2dz2      -0.001679 -0.000909  0.000624 -0.001038 -0.005540 -0.006729
  1C   2dxz       0.000723 -0.001441 -0.002007  0.004805 -0.001319  0.002790
  1C   2dyz      -0.004307  0.001261 -0.003160  0.000199  0.005125  0.002551
  1C   2dx2y2    -0.003076  0.004449 -0.001457  0.000848 -0.002715  0.004230
  1C   2dxy      -0.000643 -0.001260 -0.003831  0.006855 -0.001946  0.004325
  1C   1f0        0.002498  0.001358 -0.002139 -0.000308  0.002585 -0.000144
  1C   1f+1       0.000027 -0.000112 -0.000313 -0.000035  0.000334 -0.000599
  1C   1f-1       0.000299  0.000001  0.000005  0.000063 -0.001062 -0.000646
  1C   1f+2       0.001243 -0.000516  0.000566  0.000012 -0.000595 -0.000337
  1C   1f-2       0.000378 -0.000048  0.000205 -0.000290  0.000080 -0.000527
  1C   1f+3      -0.001102 -0.000778  0.000678 -0.000040 -0.001346 -0.001293
  1C   1f-3       0.002895  0.001556 -0.002557 -0.000398  0.004189  0.000544
  2H   1s         0.005131  0.016119 -0.045961  0.049980 -0.057292 -0.002113
  2H   2s         0.005240  0.017274 -0.048728  0.053488 -0.069847 -0.005980
  2H   3s         0.000191  0.003814 -0.014041  0.015156 -0.017578 -0.001644
  2H   1pz        0.000960  0.002732 -0.007214  0.007219 -0.007902 -0.000324
  2H   1px        0.000576  0.001157 -0.001512 -0.000465  0.000592 -0.001637
  2H   1py        0.000528  0.000194 -0.000447  0.000082  0.000775  0.000038
  3H   1s         0.002594  0.018061 -0.048099  0.048433 -0.047804  0.002353
  3H   2s         0.000890  0.019906 -0.052094  0.051925 -0.055403  0.000640
  3H   3s         0.001920  0.002646 -0.011179  0.012630 -0.015971 -0.000435
  3H   1pz       -0.000061 -0.000823  0.002116 -0.002378  0.003744  0.000557
  3H   1px        0.000200  0.000861 -0.000752 -0.001294  0.001999 -0.001358
  3H   1py        0.000361  0.003089 -0.007569  0.006664 -0.005455  0.000320
  4H   1s         0.004847  0.013862 -0.045153  0.054513 -0.041920  0.017875
  4H   2s         0.004869  0.015268 -0.049195  0.060399 -0.046164  0.022332
  4H   3s        -0.000122  0.004375 -0.006790  0.009834 -0.013311  0.003270
  4H   1pz       -0.000202 -0.000605  0.002135 -0.002944  0.003658 -0.000330
  4H   1px        0.001157  0.002519 -0.007019  0.007035 -0.003252  0.002479
  4H   1py        0.000073 -0.000743  0.002463 -0.003275  0.004053 -0.000602
  5C   1s        -0.008973 -0.060132  0.007283  0.054455  0.018517  0.037194
  5C   2s        -0.018494 -0.125929  0.015309  0.114951  0.039155  0.078753
  5C   3s         0.027212  0.190261 -0.023124 -0.177466 -0.059185 -0.119643
  5C   4s         0.021924  0.209808 -0.029670 -0.209149 -0.085182 -0.174769
  5C   5s         0.013570  0.026881  0.013809 -0.022378  0.003540  0.006273
  5C   1pz        0.002172  0.015039 -0.003283 -0.003468  0.032559  0.061766
  5C   1px       -0.011766  0.010280  0.062086  0.008889 -0.062197  0.048401
  5C   1py        0.010191  0.015628  0.009780 -0.005949  0.015742  0.073776
  5C   2pz        0.000681  0.011464 -0.003683 -0.005664  0.019236  0.036262
  5C   2px       -0.008039  0.005113  0.045690  0.006719 -0.034325  0.031811
  5C   2py        0.005059  0.012408  0.006434 -0.009956  0.007417  0.042885
  5C   3pz        0.003732  0.005000 -0.000518 -0.002072  0.012291  0.021114
  5C   3px       -0.004098  0.003018  0.025837  0.008864 -0.008984  0.013929
  5C   3py        0.002915  0.006195  0.007341 -0.008324  0.001624  0.015168
  5C   1dz2      -0.000680 -0.001435  0.000136 -0.000513 -0.000633 -0.001611
  5C   1dxz      -0.000077  0.000000  0.001992  0.000505 -0.003190  0.001819
  5C   1dyz       0.000300  0.000871  0.000177 -0.000483  0.001076  0.003171
  5C   1dx2y2     0.000230  0.002130 -0.000898  0.001065  0.001020  0.000592
[...]

  6 H s       :     0.886809  s :     0.886809
      pz      :     0.004990  p :     0.020653
      px      :     0.004847
      py      :     0.010816

  7 O s       :     3.794371  s :     3.794371
      pz      :     1.300007  p :     4.592199
      px      :     1.872647
      py      :     1.419545
      dz2     :     0.012139  d :     0.029111
      dxz     :     0.001207
      dyz     :     0.004172
      dx2y2   :     0.006982
      dxy     :     0.004612
      f0      :     0.000569  f :     0.001474
      f+1     :     0.000089
      f-1     :     0.000084
      f+2     :     0.000184
      f-2     :     0.000045
      f+3     :     0.000221
      f-3     :     0.000283

  8 C s       :     3.125032  s :     3.125032
      pz      :     0.976219  p :     2.873220
      px      :     0.909493
      py      :     0.987508
      dz2     :     0.024704  d :     0.093583
      dxz     :     0.016546
      dyz     :     0.003519
      dx2y2   :     0.030259
      dxy     :     0.018557
      f0      :     0.000829  f :     0.005314
      f+1     :     0.000955
      f-1     :     0.000230
      f+2     :     0.000468
      f-2     :     0.000561
      f+3     :     0.001331
      f-3     :     0.000939

  9 H s       :     0.918530  s :     0.918530
      pz      :     0.011714  p :     0.020917
      px      :     0.004563
      py      :     0.004640

 10 H s       :     0.911449  s :     0.911449
      pz      :     0.004938  p :     0.021151
      px      :     0.004730
      py      :     0.011482

 11 C s       :     3.202684  s :     3.202684
      pz      :     1.032744  p :     3.044754
      px      :     0.981597
      py      :     1.030413
      dz2     :     0.015891  d :     0.054580
      dxz     :     0.009865
      dyz     :     0.001971
      dx2y2   :     0.014590
      dxy     :     0.012262
      f0      :     0.000783  f :     0.003191
      f+1     :     0.000466
      f-1     :     0.000090
      f+2     :     0.000241
      f-2     :     0.000233
      f+3     :     0.000623
      f-3     :     0.000754

 12 H s       :     0.896286  s :     0.896286
      pz      :     0.004823  p :     0.021381
      px      :     0.004772
      py      :     0.011787

 13 H s       :     0.911822  s :     0.911822
      pz      :     0.011732  p :     0.020867
      px      :     0.004484
      py      :     0.004651

 14 H s       :     0.885421  s :     0.885421
      pz      :     0.011304  p :     0.020640
      px      :     0.004698
      py      :     0.004638

 15 H s       :     0.872303  s :     0.872303
      pz      :     0.005430  p :     0.020863
      px      :     0.009206
      py      :     0.006227

 16 H s       :     0.933648  s :     0.933648
      pz      :     0.012878  p :     0.020656
      px      :     0.004559
      py      :     0.003220

 17 H s       :     0.676433  s :     0.676433
      pz      :     0.018359  p :     0.046807
      px      :     0.017403
      py      :     0.011045



                     *******************************
                     * LOEWDIN POPULATION ANALYSIS *
                     *******************************

----------------------
LOEWDIN ATOMIC CHARGES
----------------------
   0 C :   -0.298992
   1 C :   -0.368512
   2 H :    0.116439
   3 H :    0.121972
   4 H :    0.121902
   5 C :   -0.258422
   6 H :    0.115547
   7 O :   -0.021952
   8 C :   -0.289627
   9 H :    0.131642
  10 H :    0.138041
  11 C :   -0.314956
  12 H :    0.134036
  13 H :    0.131747
  14 H :    0.115907
  15 H :    0.117646
  16 H :    0.141048
  17 H :    0.166533

-------------------------------
LOEWDIN REDUCED ORBITAL CHARGES
-------------------------------
  0 C s       :     2.849110  s :     2.849110
      pz      :     1.067004  p :     3.177853
      px      :     1.050061
      py      :     1.060788
      dz2     :     0.068517  d :     0.248531
      dxz     :     0.032793
      dyz     :     0.029340
      dx2y2   :     0.072958
      dxy     :     0.044924
      f0      :     0.004075  f :     0.023498
      f+1     :     0.002302
      f-1     :     0.001221
      f+2     :     0.003597
      f-2     :     0.004307
      f+3     :     0.003281
      f-3     :     0.004715

  1 C s       :     2.772294  s :     2.772294
      pz      :     1.001999  p :     2.873839
      px      :     1.022069
      py      :     0.849771
      dz2     :     0.152083  d :     0.643043
      dxz     :     0.068101
      dyz     :     0.079017
      dx2y2   :     0.163687
      dxy     :     0.180155
      f0      :     0.007090  f :     0.079336
      f+1     :     0.004901
      f-1     :     0.009420
      f+2     :     0.012541
      f-2     :     0.011070
      f+3     :     0.019869
      f-3     :     0.014445

  2 H s       :     0.823302  s :     0.823302
      pz      :     0.034147  p :     0.060259
      px      :     0.012930
      py      :     0.013181

  3 H s       :     0.817336  s :     0.817336
      pz      :     0.016266  p :     0.060692
      px      :     0.013028
      py      :     0.031398

  4 H s       :     0.817037  s :     0.817037
      pz      :     0.015155  p :     0.061061
      px      :     0.029040
      py      :     0.016865

  5 C s       :     2.795613  s :     2.795613
      pz      :     1.020318  p :     3.043090
      px      :     1.002223
      py      :     1.020550
      dz2     :     0.105336  d :     0.383583
      dxz     :     0.064235
      dyz     :     0.025668
      dx2y2   :     0.117530
      dxy     :     0.070814
      f0      :     0.004867  f :     0.036136
      f+1     :     0.005193
      f-1     :     0.001829
      f+2     :     0.005361
      f-2     :     0.006025
      f+3     :     0.006783
      f-3     :     0.006079

  6 H s       :     0.824250  s :     0.824250
      pz      :     0.014635  p :     0.060204
      px      :     0.012970
      py      :     0.032599

  7 O s       :     3.391909  s :     3.391909
      pz      :     1.338204  p :     4.560588
      px      :     1.765183
      py      :     1.457201
      dz2     :     0.026925  d :     0.065287
      dxz     :     0.001718
      dyz     :     0.011487
      dx2y2   :     0.013935
      dxy     :     0.011222
      f0      :     0.001565  f :     0.004168
      f+1     :     0.000048
      f-1     :     0.000531
      f+2     :     0.000575
      f-2     :     0.000147
      f+3     :     0.000671
      f-3     :     0.000631

  8 C s       :     2.790964  s :     2.790964
      pz      :     1.025820  p :     3.068703
      px      :     1.009190
      py      :     1.033693
      dz2     :     0.106438  d :     0.392546
      dxz     :     0.067825
      dyz     :     0.022640
      dx2y2   :     0.117130
      dxy     :     0.078513
      f0      :     0.004698  f :     0.037414
      f+1     :     0.005327
      f-1     :     0.002085
      f+2     :     0.005519
      f-2     :     0.006301
      f+3     :     0.007324
      f-3     :     0.006160

  9 H s       :     0.810470  s :     0.810470
      pz      :     0.032703  p :     0.057887
      px      :     0.012424
      py      :     0.012760

 10 H s       :     0.803645  s :     0.803645
      pz      :     0.014427  p :     0.058315
      px      :     0.012649
      py      :     0.031239

 11 C s       :     2.844022  s :     2.844022
      pz      :     1.070530  p :     3.186716
      px      :     1.046201
      py      :     1.069985
      dz2     :     0.074657  d :     0.260204
      dxz     :     0.043876
      dyz     :     0.014537
      dx2y2   :     0.068541
      dxy     :     0.058593
      f0      :     0.003763  f :     0.024014
      f+1     :     0.002834
      f-1     :     0.001246
      f+2     :     0.003904
      f-2     :     0.004310
      f+3     :     0.003391
      f-3     :     0.004565

 12 H s       :     0.806474  s :     0.806474
      pz      :     0.014267  p :     0.059490
      px      :     0.012862
      py      :     0.032362

 13 H s       :     0.810348  s :     0.810348
      pz      :     0.032478  p :     0.057905
      px      :     0.012300
      py      :     0.013127

 14 H s       :     0.823913  s :     0.823913
      pz      :     0.034186  p :     0.060180
      px      :     0.012759
      py      :     0.013236

 15 H s       :     0.821952  s :     0.821952
      pz      :     0.016119  p :     0.060402
      px      :     0.025372
      py      :     0.018911

 16 H s       :     0.804170  s :     0.804170
      pz      :     0.033666  p :     0.054782
      px      :     0.012362
      py      :     0.008754

 17 H s       :     0.679512  s :     0.679512
      pz      :     0.079102  p :     0.153955
      px      :     0.044847
      py      :     0.030005



                      *****************************
                      * MAYER POPULATION ANALYSIS *
                      *****************************

  NA   - Mulliken gross atomic population
  ZA   - Total nuclear charge
  QA   - Mulliken gross atomic charge
  VA   - Mayer's total valence
  BVA  - Mayer's bonded valence
  FA   - Mayer's free valence

  ATOM       NA         ZA         QA         VA         BVA        FA
  0 C      6.3019     6.0000    -0.3019     3.9116     3.9116    -0.0000
  1 C      5.8525     6.0000     0.1475     4.0173     4.0173    -0.0000
  2 H      0.9155     1.0000     0.0845     0.9897     0.9897    -0.0000
  3 H      0.9051     1.0000     0.0949     0.9825     0.9825     0.0000
  4 H      0.8829     1.0000     0.1171     0.9792     0.9792    -0.0000
  5 C      6.2160     6.0000    -0.2160     4.0185     4.0185    -0.0000
  6 H      0.9075     1.0000     0.0925     0.9779     0.9779    -0.0000
  7 O      8.4172     8.0000    -0.4172     2.0112     2.0112    -0.0000
  8 C      6.0971     6.0000    -0.0971     3.9181     3.9181     0.0000
  9 H      0.9394     1.0000     0.0606     0.9880     0.9880    -0.0000
 10 H      0.9326     1.0000     0.0674     0.9808     0.9808    -0.0000
 11 C      6.3052     6.0000    -0.3052     3.9445     3.9445    -0.0000
 12 H      0.9177     1.0000     0.0823     1.0073     1.0073     0.0000
 13 H      0.9327     1.0000     0.0673     0.9780     0.9780    -0.0000
 14 H      0.9061     1.0000     0.0939     0.9773     0.9773    -0.0000
 15 H      0.8932     1.0000     0.1068     0.9716     0.9716    -0.0000
 16 H      0.9543     1.0000     0.0457     0.9648     0.9648    -0.0000
 17 H      0.7232     1.0000     0.2768     0.9458     0.9458     0.0000

  Mayer bond orders larger than 0.100000
B(  0-C ,  1-C ) :   1.0138 B(  0-C ,  2-H ) :   0.9559 B(  0-C ,  3-H ) :   0.9599 
B(  0-C ,  4-H ) :   0.9706 B(  1-C ,  5-C ) :   1.0192 B(  1-C ,  7-O ) :   1.0095 
B(  1-C , 16-H ) :   0.9273 B(  5-C ,  8-C ) :   1.0360 B(  5-C ,  9-H ) :   0.9461 
B(  5-C , 10-H ) :   0.9399 B(  6-H , 11-C ) :   0.9685 B(  7-O , 17-H ) :   0.9040 
B(  8-C , 11-C ) :   1.0137 B(  8-C , 12-H ) :   0.9494 B(  8-C , 13-H ) :   0.9486 
B( 11-C , 14-H ) :   0.9706 B( 11-C , 15-H ) :   0.9697 

-------
TIMINGS
-------

Total SCF time: 0 days 0 hours 0 min 8 sec 

Total time                  ....       8.648 sec
Sum of individual times     ....       7.565 sec  ( 87.5%)

SCF preparation             ....       0.054 sec  (  0.6%)
Fock matrix formation       ....       7.397 sec  ( 85.5%)
  Startup                   ....       0.004 sec  (  0.1% of F)
  Split-RI-J                ....       2.091 sec  ( 28.3% of F)
  XC integration            ....       6.261 sec  ( 84.6% of F)
    Basis function eval.    ....       2.340 sec  ( 37.4% of XC)
    Density eval.           ....       1.116 sec  ( 17.8% of XC)
    XC-Functional eval.     ....       0.163 sec  (  2.6% of XC)
    XC-Potential eval.      ....       2.112 sec  ( 33.7% of XC)
Diagonalization             ....       0.000 sec  (  0.0%)
Density matrix formation    ....       0.012 sec  (  0.1%)
Total Energy calculation    ....       0.002 sec  (  0.0%)
Population analysis         ....       0.036 sec  (  0.4%)
Orbital Transformation      ....       0.009 sec  (  0.1%)
Orbital Orthonormalization  ....       0.000 sec  (  0.0%)
DIIS solution               ....       0.013 sec  (  0.2%)
SOSCF solution              ....       0.041 sec  (  0.5%)
Finished LeanSCF after   8.7 sec

Maximum memory used throughout the entire LEANSCF-calculation: 26.6 MB

-------------------------   --------------------
FINAL SINGLE POINT ENERGY      -272.996314844396
-------------------------   --------------------

                                *** OPTIMIZATION RUN DONE ***


------------------------------------------------------------------------------
                              ORCA PROPERTY CALCULATIONS
------------------------------------------------------------------------------

GBWName                                 ... pentanol.gbw
Number of atoms                         ...     18
Number of basis functions               ...    258
Max core memory                         ...  16384 MB

Electric properties:
Dipole moment                           ... YES
Quadrupole moment                       ...  NO
Static polarizability (Dipole/Dipole)   ...  NO
Static polarizability (Dipole/Quad.)    ...  NO
Static polarizability (Quad./Quad.)     ...  NO
Static polarizability (Velocity)        ...  NO
Static hyperpolarizability              ...  NO

Atomic electric properties:
Dipole moment                           ...  NO
Quadrupole moment                       ...  NO
Static polarizability                   ...  NO

Choice of electric origin               ... Center of mass
Position of electric origin             ...     0.208781     4.393157     0.078611

General magnetic properties:
Magnetizability                         ...  NO

EPR properties:
g-Tensor (aka g-matrix)                 ...  NO
Zero-Field splitting spin-orbit         ...  NO
Zero-field splitting spin-spin          ...  NO
Hyperfine couplings                     ...  NO (   0 nuclei)
Quadrupole couplings                    ...  NO (   0 nuclei)
Contact density                         ...  NO (   0 nuclei)

NMR properties:
Chemical shifts                         ...  NO (   0 nuclei)
Spin-rotation constants                 ...  NO (   0 nuclei)
Spin-spin couplings                     ...  NO (   0 nuclei,    0 pairs)

Choice of magnetic origin               ... GIAO
Position of magnetic origin             ...     0.000000     0.000000     0.000000

Properties with geometric perturbations:
SCF Hessian                             ...  NO
IR spectrum                             ...  NO
VCD spectrum                            ...  NO
X-ray spectroscopy properties:
SCF XES/XAS/RIXS spectra                ...  NO

SCF SOC stabilization energy            ...  NO
Diagonal Born-Oppenheimer correction    ...  NO

-------------
DIPOLE MOMENT
-------------

Method             : SCF
Type of density    : Electron Density
Multiplicity       :   1
Irrep              :   0
Energy             :  -272.9963148443964656 Eh
Basis              : AO
                                X                 Y                 Z
Electronic contribution:     -2.981473789       3.222549077       0.485628101
Nuclear contribution   :      3.013231076      -3.687835662      -0.805977532
                        -----------------------------------------
Total Dipole Moment    :      0.031757287      -0.465286586      -0.320349431
                        -----------------------------------------
Magnitude (a.u.)       :      0.565794919
Magnitude (Debye)      :      1.438136393



--------------------
Rotational spectrum 
--------------------
 
Rotational constants in cm-1:             0.234405             0.056354             0.049127 
Rotational constants in MHz :          7027.293299          1689.436131          1472.782353 

Dipole components along the rotational axes: 
x,y,z [a.u.] :     0.054676     0.476525    -0.300097 
x,y,z [Debye]:     0.138975     1.211230    -0.762786 

 

Dipole moment calculation done in   0.0 sec 

Maximum memory used throughout the entire PROP-calculation: 18.0 MB

--------------------------------
SUGGESTED CITATIONS FOR THIS RUN
--------------------------------

Below you find a list of papers that are relevant to this ORCA run
We neither can nor want to force you to cite these papers, but we appreciate if you do
You receive ORCA, which is the product of decades of hard work by many enthusiastic individuals, for free
The only thing we kindly ask in return is that you cite our papers,
We deeply appreciate it, if you show your appreciation for ORCA by not just citing the generic ORCA reference.

Please note that relegating all ORCA citations to the supporting information does *not* help us.
SI sections are not indexed - citations you put there will not count into any citation statistics
But we need these citations in order to attract the funding resources that allow us to do what we are doing

Therefore, if you are a happy ORCA user, please consider citing a few of the papers listed below in the main body of your paper

In addition to the list printed below, the program has created the file pentanol.bibtex that contains the list in bibtex format
You can import this file easily into all common literature databanks and citation aid programs


List of essential papers. We consider these as the minimum necessary citations

  1. Neese, F.
     Software update: the ORCA program system, version 6.0
     WIRES Comput. Molec. Sci. 2025 15(1), e70019
     doi.org/10.1002/wcms.7019

List of papers to cite with high priority. The work reported in these papers was absolutely
necessary for this run to complete.
Our perspective: the developers of density functionals and basis sets usually get cited in chemistry papers
Good! But without the algorithms to do something with them, the functionals or basis sets would not do anything.
Hence, in our opinion, the algorithm design and method developments papers are equally worthy of getting cited

  1. Neese, F.
     An improvement of the resolution of the identity approximation for the formation of the Coulomb matrix
     J. Comp. Chem. 2003 24(14), 1740-1747
     doi.org/10.1002/jcc.10318
  2. Neese, F.
     The SHARK Integral Generation and Digestion System
     J. Comp. Chem. 2022 44(3), 381
     doi.org/10.1002/jcc.26942

List of suggested additional citations. These are papers that are important in the 'surrounding' of 
of this run, or papers that preceded the highly important papers. If you like your results we are grateful for a citation.

  1. Neese, F.
     The ORCA program system
     WIRES Comput. Molec. Sci. 2012 2(1), 73-78
     doi.org/10.1002/wcms.81
  2. Neese, F.
     Software update: the ORCA program system, version 4.0
     WIRES Comput. Molec. Sci. 2018 8(1), 1-6
     doi.org/10.1002/wcms.1327
  3. Neese, F.; Wennmohs, F.; Becker, U.; Riplinger, C.
     The ORCA quantum chemistry program package
     J. Chem. Phys. 2020 152(22), 224108
     doi.org/10.1063/5.0004608
  4. Neese, F.
     Software update: The ORCA program system—Version 5.0
     WIRES Comput. Molec. Sci. 2022 12(1), e1606
     doi.org/10.1002/wcms.1606

List of optional additional citations

  1. Neese, F.
     Approximate second-order SCF convergence for spin unrestricted wavefunctions
     Chem. Phys. Lett. 2000 325(1-3), 93-98
     doi.org/10.1016/s0009-2614(00)00662-x

Timings for individual modules:

Sum of individual times          ...      188.340 sec (=   3.139 min)
Startup calculation              ...       11.436 sec (=   0.191 min)   6.1 %
SCF iterations                   ...      107.189 sec (=   1.786 min)  56.9 %
Property calculations            ...        0.165 sec (=   0.003 min)   0.1 %
SCF Gradient evaluation          ...       69.466 sec (=   1.158 min)  36.9 %
Geometry relaxation              ...        0.084 sec (=   0.001 min)   0.0 %
                             ****ORCA TERMINATED NORMALLY****
TOTAL RUN TIME: 0 days 0 hours 3 minutes 11 seconds 426 msec
