
                                 *****************
                                 * O   R   C   A *
                                 *****************

                                            #,                                       
                                            ###                                      
                                            ####                                     
                                            #####                                    
                                            ######                                   
                                           ########,                                 
                                     ,,################,,,,,                         
                               ,,#################################,,                 
                          ,,##########################################,,             
                       ,#########################################, ''#####,          
                    ,#############################################,,   '####,        
                  ,##################################################,,,,####,       
                ,###########''''           ''''###############################       
              ,#####''   ,,,,##########,,,,          '''####'''          '####       
            ,##' ,,,,###########################,,,                        '##       
           ' ,,###''''                  '''############,,,                           
         ,,##''                                '''############,,,,        ,,,,,,###''
      ,#''                                            '''#######################'''  
     '                                                          ''''####''''         
             ,#######,   #######,   ,#######,      ##                                
            ,#'     '#,  ##    ##  ,#'     '#,    #''#        ,####,    ,#,          
            ##       ##  ##   ,#'  ##            #'  '#       #'       ,# #          
            ##       ##  #######   ##           ,######,      #####,      #          
            '#,     ,#'  ##    ##  '#,     ,#' ,#      #,     #,   #      #          
             '#######'   ##     ##  '#######'  #'      '#     '####' #    #          



                #########################################################
                #                        -***-                          #
                #          Department of theory and spectroscopy        #
                #                                                       #
                #                      Frank Neese                      #
                #                                                       #
                #     Directorship, Architecture, Infrastructure        #
                #                    SHARK, DRIVERS                     #
                #        Core code/Algorithms in most modules           #
                #                                                       #
                #        Max Planck Institute fuer Kohlenforschung      #
                #                Kaiser Wilhelm Platz 1                 #
                #                 D-45470 Muelheim/Ruhr                 #
                #                      Germany                          #
                #                                                       #
                #                  All rights reserved                  #
                #                        -***-                          #
                #########################################################


                         Program Version 6.1.0  -  RELEASE   -
                                (GIT: $679e74b7b5$)
                          ($2025-06-10 18:02:51 +0200$)


 With contributions from (in alphabetic order):
[Max-Planck-Institut fuer Kohlenforschung]                               
  Daniel Aravena         : Magnetic Suceptibility                        
  Michael Atanasov       : Ab Initio Ligand Field Theory (pilot matlab implementation)
  Alexander A. Auer      : GIAO ZORA, VPT2 properties, NMR spectrum      
  Ute Becker             : All parallelization in ORCA, NUMFREQ, NUMCALC 
  Giovanni Bistoni       : ED, misc. LED, open-shell LED, HFLD           
  Dmytro Bykov           : pre 5.0 version of the SCF Hessian            
  Marcos Casanova-Páez   : Triplet and SCS-CIS(D). UHF-(DLPNO)-IP/EA/STEOM-CCSD. UHF-CVS-IP/STEOM-CCSD   
  Vijay G. Chilkuri      : MRCI spin determinant printing, contributions to CSF-ICE 
  Pauline Colinet        : FMM embedding                                 
  Dipayan Datta          : RHF DLPNO-CCSD density                        
  Achintya Kumar Dutta   : EOM-CC, STEOM-CC                              
  Nicolas Foglia         : Exact transition moments, OPA infrastructure, MCD improvements    
  Dmitry Ganyushin       : Spin-Orbit,Spin-Spin,Magnetic field MRCI      
  Miquel Garcia-Rates    : C-PCM and meta-GGA Hessian, CCSD/C-PCM, Gaussian charge scheme 
  Tiago L. C. Gouveia    : GS-ROHF, GS-ROCIS                             
  Yang Guo               : DLPNO-NEVPT2, F12-NEVPT2, CIM, IAO-localization        
  Andreas Hansen         : Spin unrestricted coupled pair/coupled cluster methods 
  Ingolf Harden          : AUTO-CI MPn and infrastructure                
  Benjamin Helmich-Paris : MC-RPA, TRAH-(SCF,CASSCF), AVAS, COSX integrals, SCF dyn. polar., MC-PDFT, srDFT 
  Lee Huntington         : MR-EOM, pCC                                   
  Robert Izsak           : Overlap fitted RIJCOSX, COSX-SCS-MP3, EOM     
  Riya Kayal             : Wick's Theorem for AUTO-CI, AUTO-CI UHF-CCSDT 
  Emily Kempfer          : AUTO-CI RHF CISDT and CCSDT, approximate NEVPT4
  Christian Kollmar      : KDIIS, OOCD, Brueckner-CCSD(T), CCSD density, CASPT2, CASPT2-K, improved NEVPT2 
  Axel Koslowski         : Symmetry handling                             
  Simone Kossmann        : meta-GGA functionals, TD-DFT gradient, OOMP2, (MP2 Hessian; deprecated post 5.0) 
  Lucas Lang             : DCDCAS, Hyperfine gauge corrections, ICE-SOC+SSC
  Marvin Lechner         : AUTO-CI (C++ implementation), FIC-MRCC        
  Spencer Leger          : CASSCF response                               
  Dagmar Lenk            : GEPOL surface, SMD, ORCA-2-JSON               
  Dimitrios Liakos       : Extrapolation schemes; Compound Job, Property file
  Dimitrios Manganas     : Further ROCIS development; embedding schemes. LFT, Crystal Embedding 
  Dimitrios Pantazis     : SARC Basis sets                               
  Anastasios Papadopoulos: AUTO-CI, single reference methods and gradients 
  Taras Petrenko         : pre 6.0 DFT Hessian and TD-DFT gradient,  ECA, NRVS 
  Petra Pikulova         : Analytic Raman intensities                    
  Peter Pinski           : DLPNO-MP2, DLPNO-MP2 Gradient                 
  Shashank Vittal Rao    : ES-AILFT, MagRelax                            
  Christoph Reimann      : Effective Core Potentials                     
  Marius Retegan         : Local ZFS, SOC                                
  Christoph Riplinger    : Optimizer, TS searches, QM/MM, DLPNO-CCSD(T), (RO)-DLPNO pert. Triples 
  Michael Roemelt        : Original ROCIS implementation, recursive CI coupling coefficients
  Masaaki Saitow         : Open-shell DLPNO-CCSD energy and density      
  Barbara Sandhoefer     : DKH picture change effects                    
  Yorick L. A. Schmerwitz: GMF and freeze-and-release deltaSCF, NEB S-IDPP initial path                    
  Kantharuban Sivalingam : CASSCF convergence/infrastructure, NEVPT2, NEVPT3, NEVPT4(SD), FIC-MRCI and CEPA variants
  Bernardo de Souza      : ESD, SOC TD-DFT                               
  Georgi L. Stoychev     : AutoAux, RI-MP2 NMR, DLPNO-MP2 response, X2C  
  Van Anh Tran           : RI-MP2 g-tensors                              
  Willem Van den Heuvel  : Paramagnetic NMR                              
  Zikuan Wang            : NOTCH, Electric field optimization            
  Frank Wennmohs         : Technical directorship and infrastructure     
  Hang Xu                : AUTO-CI-Response properties                   
                                                                         
[FACCTs GmbH]                                                            
  Markus Bursch, Nicolas Foglia, Miquel Garcia-Rates, Ingolf Harden, Hagen Neugebauer, Anastasios Papadopoulos, 
  Christoph Riplinger, Bernardo de Souza, Georgi L. Stoychev                                                    
                                                                 
  APM, various basis sets, CI-OPT, improved COSX, DLPNO-Multilevel,           
  DOCKER, DRACO, updates on ESD, Fragmentator, GOAT, IRC, LR-CPCM, L-BFGS, MBIS, meta-GGA TD-DFT gradient, ML-optimized integration grids, 
  MM, NACMEs, nearIR, NEB, NEB-TS, NL-DFT gradient (VV10), 2- and 3-layer-ONIOM, interface openCOSMO-RS, QMMM,   
  Crystal-QMMM, RESP, rigid body optimization, SF, symmetry and pop. for TD-DFT, various functionals, SOLVATOR                                   
                                                                         
[Other institutions]                                                     
  V. Asgeirsson          : NEB                                           
  Christoph Bannwarth    : sTDA-DFT, sTD-DFT, PBEh-3c, B97-3c, D3        
  Giovanni Bistoni       : ETS/NOCV, ADLD/ADEX, COVALED                  
  Martin Brehm           : Molecular dynamics                            
  Ronald Cardenas        : ETS/NOCV                                      
  Martina Colucci        : COVALED                                       
  Sebastian Ehlert       : rSCAN, r2SCAN, r2SCAN-3c, D4, dhf basis sets  
  Marvin Friede          : D4 for Fr, Ra, Ac-Lr                          
  Lars Goerigk           : TD-DFT with DH, B97 family of functionals     
  Stefan Grimme          : VdW corrections, initial TS optimization, DFT functionals, gCP, sTDA/sTD-DF 
  Waldemar Hujo          : DFT-NL                                        
  H. Jonsson             : NEB                                           
  Holger Kruse           : gCP                                           
  Marcel Mueller         : wB97X-3c, vDZP basis set                      
  Hagen Neugebauer       : wr2SCAN, Native XTB                           
  Gianluca Regni         : ADLD/ADEX                                     
  Tobias Risthaus        : pre 6.0 range-separated hybrid DFT and stability analysis
  Lukas Wittmann         : regularized MP2, r2SCAN double-hybrids, wr2SCAN        
                                                                         
We gratefully acknowledge several colleagues who have allowed us to      
interface, adapt or use parts of their codes:                            
  Ed Valeev, F. Pavosevic, A. Kumar             : LibInt (2-el integral package), F12 methods 
  Garnet Chan, S. Sharma, J. Yang, R. Olivares  : DMRG                   
  Ulf Ekstrom                                   : XCFun DFT Library      
  Mihaly Kallay                                 : mrcc  (arbitrary order and MRCC methods)
  Frank Weinhold                                : gennbo (NPA and NBO analysis)           
  Simon Mueller                                 : openCOSMO-RS                            
  Christopher J. Cramer and Donald G. Truhlar   : smd solvation model                     
  S Lehtola, MJT Oliveira, MAL Marques          : LibXC Library                           
  Liviu Ungur et al                             : ANISO software                          


 Your calculation uses the libint2 library for the computation of 2-el integrals
 For citations please refer to: http://libint.valeyev.net

 Your ORCA version has been built with support for libXC version: 7.0.0
 For citations please refer to: https://libxc.gitlab.io

 This ORCA versions uses:
   CBLAS   interface :  Fast vector & matrix operations
   LAPACKE interface :  Fast linear algebra routines
   SCALAPACK package :  Parallel linear algebra routines
   Shared memory     :  Shared parallel matrices


  ***********************************
  * Starting time: Fri Nov 28 12:47:09 2025
  * Host name:     Grants-Air.localdomain
  * Process ID:    10070
  * Working dir.:  /Users/grantkruttschnitt/Documents/orcaProjects
  ***********************************

NOTE: MaxCore=16384 MB was set to SCF,MP2,MDCI,CIPSI,MRCI,RASCI and CIS
      => If you want to overwrite this, your respective input block should be placed after the MaxCore statement
Warning: RI is on but no J-basis has been assigned. Assigning Def2/J (nothing to worry about!)
================================================================================

----- Orbital basis set information -----
Your calculation utilizes the basis: def2-TZVP
   F. Weigend and R. Ahlrichs, Phys. Chem. Chem. Phys. 7, 3297 (2005).

----- AuxJ basis set information -----
Your calculation utilizes the auxiliary basis: def2/J
   H-Rn: F. Weigend, Phys. Chem. Chem. Phys. 8, 1057 (2006).
   Fr-Lr: K. Eichkorn, F. Weigend, O. Treutler, R. Ahlrichs; Theor. Chem. Acc. 97, 119 (1997).

================================================================================
                                        WARNINGS
                       Please study these warnings very carefully!
================================================================================


WARNING: Geometry Optimization
  ===> : Switching off AutoStart
         For restart on a previous wavefunction, please use MOREAD

================================================================================
                                       INPUT FILE
================================================================================
NAME = 2-bromopentane.inp
|  1> # avogadro generated ORCA file
|  2> # bromopentane
|  3> # 
|  4> ! Opt revPBE def2-TZVP 
|  5> 
|  6> %maxcore 16384
|  7> 
|  8> %output
|  9>    print[p_mos] 1
| 10>    print[p_basis] 2
| 11> end
| 12> 
| 13> * xyz 0 1
| 14>    C     -3.403821    0.564418   -0.150773
| 15>    C     -2.165782    1.273314    0.380693
| 16>    H     -3.358997   -0.507475    0.069642
| 17>    H     -4.315569    0.959545    0.310752
| 18>    H     -3.502368    0.681088   -1.235987
| 19>    C     -0.886861    0.736844   -0.267012
| 20>    H      1.600039   -0.504288   -0.086700
| 21>    Br    -2.362951    3.188159    0.005531
| 22>    C      0.391022    1.222318    0.426210
| 23>    H     -0.903342   -0.359971   -0.221452
| 24>    H     -0.852437    1.005543   -1.330653
| 25>    C      1.629313    0.585444   -0.186795
| 26>    H      0.483077    2.310826    0.349460
| 27>    H      0.352689    0.973493    1.493151
| 28>    H      1.711885    0.831685   -1.250254
| 29>    H      2.530424    0.948249    0.317497
| 30>    H     -2.124287    1.184040    1.471050
| 31> *
| 32> 
| 33>                          ****END OF INPUT****
================================================================================

                       *****************************
                       * Geometry Optimization Run *
                       *****************************

Geometry optimization settings:
Update method            Update   .... BFGS
Choice of coordinates    CoordSys .... (2022) Redundant Internals
Initial Hessian          InHess   .... Almloef's Model
Max. no of cycles        MaxIter  .... 51

Convergence Tolerances:
Energy Change            TolE     ....  5.0000e-06 Eh
Max. Gradient            TolMAXG  ....  3.0000e-04 Eh/bohr
RMS Gradient             TolRMSG  ....  1.0000e-04 Eh/bohr
Max. Displacement        TolMAXD  ....  4.0000e-03 bohr
RMS Displacement         TolRMSD  ....  2.0000e-03 bohr
Strict Convergence                .... False

------------------------------------------------------------------------------
                        ORCA OPTIMIZATION COORDINATE SETUP
------------------------------------------------------------------------------

The optimization will be done in redundant internal coordinates (2022)
Making redundant internal coordinates   ...  (2022 redundants) done
Evaluating the initial hessian          ...  (Almloef) done
Evaluating the coordinates              ...  done
Calculating the B-matrix                .... done
Calculating the G-matrix                .... done
The number of degrees of freedom        ....   70

    -----------------------------------------------------------------
                    Redundant Internal Coordinates


    -----------------------------------------------------------------
         Definition                    Initial Value    Approx d2E/dq
    -----------------------------------------------------------------
      1. B(C   1,C   0)                  1.5224         0.384139   
      2. B(H   2,C   0)                  1.0952         0.353237   
      3. B(H   3,C   0)                  1.0956         0.352723   
      4. B(H   4,C   0)                  1.0959         0.352370   
      5. B(C   5,C   1)                  1.5307         0.372652   
      6. B(Br  7,C   1)                  1.9612         0.257597   
      7. B(C   8,C   5)                  1.5327         0.369862   
      8. B(H   9,C   5)                  1.0979         0.349819   
      9. B(H  10,C   5)                  1.0976         0.350191   
     10. B(C  11,C   8)                  1.5214         0.385524   
     11. B(C  11,H   6)                  1.0947         0.353922   
     12. B(H  12,C   8)                  1.0951         0.353434   
     13. B(H  13,C   8)                  1.0962         0.351937   
     14. B(H  14,C  11)                  1.0947         0.353918   
     15. B(H  15,C  11)                  1.0945         0.354191   
     16. B(H  16,C   1)                  1.0948         0.353816   
     17. A(H   2,C   0,H   4)          107.8879         0.288978   
     18. A(H   2,C   0,H   3)          107.5918         0.289023   
     19. A(C   1,C   0,H   4)          111.6689         0.324648   
     20. A(C   1,C   0,H   3)          111.2073         0.324702   
     21. A(C   1,C   0,H   2)          110.6207         0.324780   
     22. A(H   3,C   0,H   4)          107.6923         0.288912   
     23. A(C   0,C   1,C   5)          111.6258         0.364934   
     24. A(C   0,C   1,H  16)          109.9094         0.324867   
     25. A(C   5,C   1,H  16)          111.1732         0.323252   
     26. A(Br  7,C   1,H  16)          105.8992         0.322777   
     27. A(C   5,C   1,Br  7)          110.1972         0.362489   
     28. A(C   0,C   1,Br  7)          107.8245         0.364375   
     29. A(H   9,C   5,H  10)          106.5740         0.288258   
     30. A(C   8,C   5,H  10)          109.5483         0.322309   
     31. A(C   1,C   5,H  10)          110.5158         0.322706   
     32. A(C   8,C   5,H   9)          108.0700         0.322253   
     33. A(C   1,C   5,C   8)          113.2171         0.362579   
     34. A(C   1,C   5,H   9)          108.6651         0.322650   
     35. A(H  12,C   8,H  13)          107.2636         0.288947   
     36. A(C  11,C   8,H  13)          109.0013         0.324775   
     37. A(C   5,C   8,H  13)          109.8249         0.322572   
     38. A(C  11,C   8,H  12)          108.6285         0.325001   
     39. A(C   5,C   8,H  12)          110.6847         0.322797   
     40. A(C   5,C   8,C  11)          111.3312         0.364690   
     41. A(H  14,C  11,H  15)          108.1155         0.289298   
     42. A(C   8,C  11,H  15)          110.2238         0.325116   
     43. A(H   6,C  11,H  15)          108.0507         0.289299   
     44. A(C   8,C  11,H  14)          111.0168         0.325075   
     45. A(H   6,C  11,H  14)          108.3460         0.289264   
     46. A(H   6,C  11,C   8)          110.9831         0.325075   
     47. D(Br  7,C   1,C   0,H   4)     61.9938         0.011748   
     48. D(Br  7,C   1,C   0,H   2)   -177.8312         0.011748   
     49. D(C   5,C   1,C   0,H   4)    -59.1772         0.011748   
     50. D(C   5,C   1,C   0,H   2)     60.9978         0.011748   
     51. D(Br  7,C   1,C   0,H   3)    -58.3335         0.011748   
     52. D(C   5,C   1,C   0,H   3)   -179.5045         0.011748   
     53. D(C   8,C   5,C   1,C   0)   -168.8125         0.011092   
     54. D(H   9,C   5,C   1,H  16)     74.3837         0.011092   
     55. D(H   9,C   5,C   1,Br  7)   -168.5181         0.011092   
     56. D(H   9,C   5,C   1,C   0)    -48.7364         0.011092   
     57. D(C   8,C   5,C   1,H  16)    -45.6923         0.011092   
     58. D(C   8,C   5,C   1,Br  7)     71.4059         0.011092   
     59. D(C  11,C   8,C   5,H  10)    -60.2775         0.010936   
     60. D(C  11,C   8,C   5,H   9)     55.4603         0.010936   
     61. D(C  11,C   8,C   5,C   1)    175.8752         0.010936   
     62. D(H  12,C   8,C   5,H  10)     60.6528         0.010936   
     63. D(H  12,C   8,C   5,H   9)    176.3906         0.010936   
     64. D(H  12,C   8,C   5,C   1)    -63.1945         0.010936   
     65. D(H  14,C  11,C   8,H  13)   -178.7693         0.011829   
     66. D(H  14,C  11,C   8,H  12)    -62.1985         0.011829   
     67. D(H  14,C  11,C   8,C   5)     59.9290         0.011829   
     68. D(H   6,C  11,C   8,H  13)     60.6677         0.011829   
     69. D(H   6,C  11,C   8,H  12)    177.2385         0.011829   
     70. D(H   6,C  11,C   8,C   5)    -60.6340         0.011829   
    -----------------------------------------------------------------

Number of atoms                         .... 17
Number of degrees of freedom            .... 70


         *************************************************************
         *                GEOMETRY OPTIMIZATION CYCLE   1            *
         *************************************************************
---------------------------------
CARTESIAN COORDINATES (ANGSTROEM)
---------------------------------
  C     -3.403821    0.564418   -0.150773
  C     -2.165782    1.273314    0.380693
  H     -3.358997   -0.507475    0.069642
  H     -4.315569    0.959545    0.310752
  H     -3.502368    0.681088   -1.235987
  C     -0.886861    0.736844   -0.267012
  H      1.600039   -0.504288   -0.086700
  Br    -2.362951    3.188159    0.005531
  C      0.391022    1.222318    0.426210
  H     -0.903342   -0.359971   -0.221452
  H     -0.852437    1.005543   -1.330653
  C      1.629313    0.585444   -0.186795
  H      0.483077    2.310826    0.349460
  H      0.352689    0.973493    1.493151
  H      1.711885    0.831685   -1.250254
  H      2.530424    0.948249    0.317497
  H     -2.124287    1.184040    1.471050

----------------------------
CARTESIAN COORDINATES (A.U.)
----------------------------
  NO LB      ZA    FRAG     MASS         X           Y           Z
   0 C     6.0000    0    12.011   -6.432289    1.066595   -0.284920
   1 C     6.0000    0    12.011   -4.092735    2.406215    0.719406
   2 H     1.0000    0     1.008   -6.347584   -0.958989    0.131604
   3 H     1.0000    0     1.008   -8.155244    1.813277    0.587236
   4 H     1.0000    0     1.008   -6.618516    1.287070   -2.335677
   5 C     6.0000    0    12.011   -1.675924    1.392433   -0.504580
   6 H     1.0000    0     1.008    3.023636   -0.952966   -0.163839
   7 Br   35.0000    0    79.900   -4.465330    6.024747    0.010452
   8 C     6.0000    0    12.011    0.738924    2.309846    0.805420
   9 H     1.0000    0     1.008   -1.707069   -0.680247   -0.418484
  10 H     1.0000    0     1.008   -1.610872    1.900201   -2.514570
  11 C     6.0000    0    12.011    3.078955    1.106329   -0.352991
  12 H     1.0000    0     1.008    0.912883    4.366828    0.660384
  13 H     1.0000    0     1.008    0.666486    1.839635    2.821646
  14 H     1.0000    0     1.008    3.234994    1.571657   -2.362638
  15 H     1.0000    0     1.008    4.781808    1.791931    0.599982
  16 H     1.0000    0     1.008   -4.014321    2.237511    2.779882

--------------------------------
INTERNAL COORDINATES (ANGSTROEM)
--------------------------------
 C      0   0   0     0.000000000000     0.00000000     0.00000000
 C      1   0   0     1.522409344918     0.00000000     0.00000000
 H      1   2   0     1.095238132394   110.62065739     0.00000000
 H      1   2   3     1.095634559175   111.20734865   119.49767330
 H      1   2   3     1.095907307168   111.66894780   239.82499111
 C      2   1   3     1.530673300272   111.62577572    60.99782402
 H      6   2   1     2.785245531146   151.02281380   240.93263541
 Br     2   1   3     1.961186761843   107.82446643   182.16878973
 C      6   2   1     1.532718730769   113.21705908   191.18753378
 H      6   2   1     1.097884548204   108.66509078   311.26358876
 H      6   2   1     1.097595709384   110.51575316    67.87156743
 C      7   6   2     1.094710833017    64.80974722   258.88785807
 H      9   6   2     1.095086458500   110.68466860   296.80552395
 H      9   6   2     1.096241942728   109.82486478    55.05537751
 H     12   7   6     1.094713574386   108.34602807   267.45143283
 H     12   7   6     1.094503962355   108.05072929   150.54007031
 H      2   1   3     1.094792249493   109.90936137   297.16161749

---------------------------
INTERNAL COORDINATES (A.U.)
---------------------------
 C      0   0   0     0.000000000000     0.00000000     0.00000000
 C      1   0   0     2.876936725617     0.00000000     0.00000000
 H      1   2   0     2.069700121652   110.62065739     0.00000000
 H      1   2   3     2.070449259700   111.20734865   119.49767330
 H      1   2   3     2.070964678711   111.66894780   239.82499111
 C      2   1   3     2.892553338020   111.62577572    60.99782402
 H      6   2   1     5.263351269594   151.02281380   240.93263541
 Br     2   1   3     3.706105877356   107.82446643   182.16878973
 C      6   2   1     2.896418641484   113.21705908   191.18753378
 H      6   2   1     2.074701122770   108.66509078   311.26358876
 H      6   2   1     2.074155296503   110.51575316    67.87156743
 C      7   6   2     2.068703670239    64.80974722   258.88785807
 H      9   6   2     2.069413499530   110.68466860   296.80552395
 H      9   6   2     2.071597048273   109.82486478    55.05537751
 H     12   7   6     2.068708850676   108.34602807   267.45143283
 H     12   7   6     2.068312741342   108.05072929   150.54007031
 H      2   1   3     2.068857525081   109.90936137   297.16161749

---------------------
BASIS SET INFORMATION
---------------------
There are 3 groups of distinct atoms

 Group   1 Type C   : 11s6p2d1f contracted to 5s3p2d1f pattern {62111/411/11/1}
 Group   2 Type H   : 5s1p contracted to 3s1p pattern {311/1}
 Group   3 Type Br  : 17s13p8d1f contracted to 6s5p4d1f pattern {842111/64111/5111/1}

Atom   0C    basis set group =>   1
Atom   1C    basis set group =>   1
Atom   2H    basis set group =>   2
Atom   3H    basis set group =>   2
Atom   4H    basis set group =>   2
Atom   5C    basis set group =>   1
Atom   6H    basis set group =>   2
Atom   7Br   basis set group =>   3
Atom   8C    basis set group =>   1
Atom   9H    basis set group =>   2
Atom  10H    basis set group =>   2
Atom  11C    basis set group =>   1
Atom  12H    basis set group =>   2
Atom  13H    basis set group =>   2
Atom  14H    basis set group =>   2
Atom  15H    basis set group =>   2
Atom  16H    basis set group =>   2

-------------------------
BASIS SET IN INPUT FORMAT
-------------------------

 # Basis set for element : H 
 NewGTO H 
 S 3 
   1      34.0613410000      0.0254393072
   2       5.1235746000      0.1900859489
   3       1.1646626000      0.8524411301
 S 1 
   1       0.3272304100      1.0000000000
 S 1 
   1       0.1030724100      1.0000000000
 P 1 
   1       0.8000000000      1.0000000000
  end;

 # Basis set for element : C 
 NewGTO C 
 S 6 
   1   13575.3496820000      0.0006064549
   2    2035.2333680000      0.0046979088
   3     463.2256235900      0.0243324776
   4     131.2001959800      0.0973999683
   5      42.8530158910      0.3019558425
   6      15.5841857660      0.6623360915
 S 2 
   1       6.2067138508      0.6559530854
   2       2.5764896527      0.3758563329
 S 1 
   1       0.5769633942      1.0000000000
 S 1 
   1       0.2297283136      1.0000000000
 S 1 
   1       0.0951644400      1.0000000000
 P 4 
   1      34.6972322440      0.0113272200
   2       7.9582622826      0.0761696592
   3       2.3780826883      0.3019225220
   4       0.8143320818      0.7278502735
 P 1 
   1       0.2888754725      1.0000000000
 P 1 
   1       0.1005682367      1.0000000000
 D 1 
   1       1.0970000000      1.0000000000
 D 1 
   1       0.3180000000      1.0000000000
 F 1 
   1       0.7610000000      1.0000000000
  end;

 # Basis set for element : Br
 NewGTO Br
 S 8 
   1  565073.2525600001      0.0002313996
   2   84701.7231790000      0.0017944809
   3   19276.2719000000      0.0093366328
   4    5456.4284576000      0.0380221412
   5    1776.9503500000      0.1243860819
   6     639.1939827600      0.2976826546
   7     248.7882396100      0.4351247870
   8      98.6783054940      0.2384543263
 S 4 
   1     606.0782456800     -0.0258029981
   2     188.4559848400     -0.1214377016
   3      31.4971445060      0.5492715415
   4      13.7360083200      0.5403867431
 S 2 
   1      21.2032127660     -0.4189765706
   2       3.7616420178      1.1962922020
 S 1 
   1       1.7735933962      1.0000000000
 S 1 
   1       0.4519741366      1.0000000000
 S 1 
   1       0.1661337710      1.0000000000
 P 6 
   1    3019.6955723000      0.0026978967
   2     715.3548112600      0.0220611771
   3     229.9832875100      0.1046886297
   4      86.1678446150      0.3030971016
   5      34.6678708020      0.4819318191
   6      14.1138703070      0.2637288336
 P 4 
   1      57.0856530820     -0.0192881876
   2       8.8193845840      0.2886445949
   3       3.9340302872      0.5105806350
   4       1.7998830384      0.2962687446
 P 1 
   1       0.6689941051      1.0000000000
 P 1 
   1       0.2713623823      1.0000000000
 P 1 
   1       0.1008379024      1.0000000000
 D 5 
   1     168.8537025700      0.0098428277
   2      49.9779499190      0.0681283771
   3      18.2749133380      0.2357380147
   4       7.2455694631      0.4427795439
   5       2.8562315025      0.4633455553
 D 1 
   1       1.0459621144      1.0000000000
 D 1 
   1       0.5686565500      1.0000000000
 D 1 
   1       0.2203149000      1.0000000000
 F 1 
   1       0.5708331200      1.0000000000
  end;

---------------------------------
AUXILIARY/J BASIS SET INFORMATION
---------------------------------
There are 3 groups of distinct atoms

 Group   1 Type C   : 12s5p4d2f1g contracted to 6s4p3d1f1g pattern {711111/2111/211/2/1}
 Group   2 Type H   : 5s2p1d contracted to 3s1p1d pattern {311/2/1}
 Group   3 Type Br  : 19s5p5d3f1g contracted to 8s4p3d2f1g pattern {121111111/2111/311/21/1}

Atom   0C    basis set group =>   1
Atom   1C    basis set group =>   1
Atom   2H    basis set group =>   2
Atom   3H    basis set group =>   2
Atom   4H    basis set group =>   2
Atom   5C    basis set group =>   1
Atom   6H    basis set group =>   2
Atom   7Br   basis set group =>   3
Atom   8C    basis set group =>   1
Atom   9H    basis set group =>   2
Atom  10H    basis set group =>   2
Atom  11C    basis set group =>   1
Atom  12H    basis set group =>   2
Atom  13H    basis set group =>   2
Atom  14H    basis set group =>   2
Atom  15H    basis set group =>   2
Atom  16H    basis set group =>   2

-------------------------------------
AUXILIARY/J BASIS SET IN INPUT FORMAT
-------------------------------------

 # Auxiliary/J basis set for element : H 
 NewAuxJGTO H 
 S 3 
   1      15.6752927000      0.1007184237
   2       3.6063578000      0.3404257499
   3       1.2080016000      0.6491996172
 S 1 
   1       0.4726794000      1.0000000000
 S 1 
   1       0.2018100000      1.0000000000
 P 2 
   1       2.0281365000      0.5596620919
   2       0.5358730000      0.5596620919
 D 1 
   1       2.2165124000      1.0000000000
  end;

 # Auxiliary/J basis set for element : C 
 NewAuxJGTO C 
 S 7 
   1    1861.0916331000      0.0134602335
   2     642.9939764000      0.0299160374
   3     235.1105725000      0.1008649584
   4      90.7028894000      0.2370970548
   5      36.7794552000      0.3924037254
   6      15.6046273000      0.3195862154
   7       6.8907294000      0.0530104441
 S 1 
   1       3.1478850000     -1.0000000000
 S 1 
   1       1.4777287000      1.0000000000
 S 1 
   1       0.7076466000      1.0000000000
 S 1 
   1       0.3430122000      1.0000000000
 S 1 
   1       0.1669453000      1.0000000000
 P 2 
   1      13.5472892000     -0.6769313712
   2       5.4669419000     -0.3779500978
 P 1 
   1       2.1751721000      1.0000000000
 P 1 
   1       0.8582194000      1.0000000000
 P 1 
   1       0.3376720000      1.0000000000
 D 2 
   1       5.9287253000     -0.3533329857
   2       1.9809209000     -0.7456525731
 D 1 
   1       0.8055417000     -1.0000000000
 D 1 
   1       0.3531244000     -1.0000000000
 F 2 
   1       1.6755626000      0.6311076882
   2       0.5997536000      0.4968166032
 G 1 
   1       1.0024600000     -1.0000000000
  end;

 # Auxiliary/J basis set for element : Br
 NewAuxJGTO Br
 S 12 
   1  181929.6907400000      0.0098592173
   2   21782.5062350000      0.0318437281
   3    7843.2391724000      0.1122124522
   4    2608.0271777000      0.2508709127
   5    1564.9696465000      0.1250956596
   6     920.5703545000      0.2502284057
   7     552.3963380000      0.1652736279
   8     191.1405907000     -0.0323762454
   9     108.0484426000      0.0526271009
  10      64.8354183000      0.2625580338
  11      38.1384803000      0.1582655532
  12      22.4343995000     -0.0934263273
 S 1 
   1      13.1967052000     -1.0000000000
 S 1 
   1       7.9187991000      1.0000000000
 S 1 
   1       4.6581170000      1.0000000000
 S 1 
   1       2.6331523000      1.0000000000
 S 1 
   1       0.5577180000      1.0000000000
 S 1 
   1       0.3152683000      1.0000000000
 S 1 
   1       0.1854519000      1.0000000000
 P 2 
   1       8.4481854000      0.4423986813
   2       3.0812881000     -1.2802496903
 P 1 
   1       1.1536778000      1.0000000000
 P 1 
   1       0.4389478000     -1.0000000000
 P 1 
   1       0.1679158000      1.0000000000
 D 3 
   1       8.7933629000     -1.3793406808
   2       3.5598266000      1.4275368284
   3       1.4866514000     -1.1228999981
 D 1 
   1       0.6328484000     -1.0000000000
 D 1 
   1       0.2711415000     -1.0000000000
 F 2 
   1       3.4681858000     -0.2539003863
   2       0.8708007000      1.0653068211
 F 1 
   1       0.2186427000      1.0000000000
 G 1 
   1       1.1078575000     -1.0000000000
  end;

------------------------------------------------------------------------------
                             ORCA STARTUP CALCULATIONS
                           -- RI-GTO INTEGRALS CHOSEN --
------------------------------------------------------------------------------
------------------------------------------------------------------------------
                   ___                                                        
                  /   \      - P O W E R E D   B Y -                         
                 /     \                                                     
                 |  |  |   _    _      __       _____    __    __             
                 |  |  |  | |  | |    /  \     |  _  \  |  |  /  |          
                  \  \/   | |  | |   /    \    | | | |  |  | /  /          
                 / \  \   | |__| |  /  /\  \   | |_| |  |  |/  /          
                |  |  |   |  __  | /  /__\  \  |    /   |      \           
                |  |  |   | |  | | |   __   |  |    \   |  |\   \          
                \     /   | |  | | |  |  |  |  | |\  \  |  | \   \       
                 \___/    |_|  |_| |__|  |__|  |_| \__\ |__|  \__/        
                                                                              
                      - O R C A' S   B I G   F R I E N D -                    
                                      &                                       
                       - I N T E G R A L  F E E D E R -                       
                                                                              
 v1 FN, 2020, v2 2021, v3 2022-2024                                           
------------------------------------------------------------------------------


----------------------
SHARK INTEGRAL PACKAGE
----------------------

Number of atoms                             ...     17
Number of basis functions                   ...    269
Number of shells                            ...    115
Maximum angular momentum                    ...      3
Integral batch strategy                     ... SHARK/LIBINT Hybrid
RI-J (if used) integral strategy            ... SPLIT-RIJ (Revised 2003 algorithm where possible)
Printlevel                                  ...      1
Contraction scheme used                     ... SEGMENTED contraction
Prescreening option                         ... SCHWARTZ
   Thresh                                   ... 2.500e-11
   Tcut                                     ... 2.500e-12
   Tpresel                                  ... 2.500e-12 
Coulomb Range Separation                    ... NOT USED
Exchange Range Separation                   ... NOT USED
Multipole approximations                    ... NOT USED
Finite Nucleus Model                        ... NOT USED
CABS basis                                  ... NOT available
Auxiliary Coulomb fitting basis             ... AVAILABLE
   # of basis functions in Aux-J            ...    424
   # of shells in Aux-J                     ...    148
   Maximum angular momentum in Aux-J        ...      4
Auxiliary J/K fitting basis                 ... NOT available
Auxiliary Correlation fitting basis         ... NOT available
Auxiliary 'external' fitting basis          ... NOT available

Checking pre-screening integrals            ... done (  0.0 sec) Dimension = 115
   => SHARK Basis and OBASIS are compatible. Storing Pre-screening
Shell pair information
Shell pair cut-off parameter TPreSel        ...   2.5e-12
Total number of shell pairs                 ...      6670
Shell pairs after pre-screening             ...      6051
Total number of primitive shell pairs       ...     21324
Primitive shell pairs kept                  ...     14471
          la=0 lb=0:   1845 shell pairs
          la=1 lb=0:   1791 shell pairs
          la=1 lb=1:    457 shell pairs
          la=2 lb=0:    822 shell pairs
          la=2 lb=1:    406 shell pairs
          la=2 lb=2:    101 shell pairs
          la=3 lb=0:    354 shell pairs
          la=3 lb=1:    174 shell pairs
          la=3 lb=2:     80 shell pairs
          la=3 lb=3:     21 shell pairs

Checking whether 4 symmetric matrices of dimension 269 fit in memory
:Max Core in MB      =  16384.00
 MB in use           =      9.44
 MB left             =  16374.56
 MB needed           =      1.11
 Data fit in memory  = YES
Calculating RI/J V-Matrix + Cholesky decomp.... done (  0.0 sec)
Calculating Nuclear repulsion               ... done (  0.0 sec) ENN=    423.504168814591 Eh

Diagonalization of the overlap matrix:
Smallest eigenvalue                        ... 1.439e-04
Time for diagonalization                   ...    0.012 sec
Threshold for overlap eigenvalues          ... 1.000e-07
Number of eigenvalues below threshold      ... 0
Time for construction of square roots      ...    0.004 sec
Total time needed                          ...    0.017 sec

-------------------
DFT GRID GENERATION
-------------------

General Integration Accuracy     IntAcc      ... 4.388
Radial Grid Type                 RadialGrid  ... OptM3 with GC (2021)
Angular Grid (max. ang.)         AngularGrid ... 4 (Lebedev-302)
Angular grid pruning method      GridPruning ... 4 (adaptive)
Weight generation scheme         WeightScheme... mBecke (2022)
Basis function cutoff            BFCut       ... 1.0000e-11
Integration weight cutoff        WCut        ... 1.0000e-14
Partially contracted basis set               ... off
Rotationally invariant grid construction     ... off
Angular grids for H and He will be reduced by one unit
Core-polarized basis detected: some atoms will have their core
                               angular grid increased.

Total number of grid points                  ...    76627
Total number of batches                      ...     1207
Average number of points per batch           ...       63
Average number of grid points per atom       ...     4507
Grids setup in   0.7 sec
Initializing property integral containers    ... done (  0.0 sec)

SHARK setup successfully completed in   1.1 seconds

Maximum memory used throughout the entire STARTUP-calculation: 46.3 MB
-------------------------------------------------------------------------------
                                 ORCA GUESS
                   Start orbitals & Density for SCF / CASSCF
-------------------------------------------------------------------------------

------------
SCF SETTINGS
------------
Hamiltonian:
 Density Functional     Method          .... DFT(GTOs)
 Exchange Functional    Exchange        .... PBE
   PBE kappa parameter   XKappa         ....  1.245000
   PBE mue parameter    XMuePBE         ....  0.219520
 Correlation Functional Correlation     .... PBE
   PBE beta parameter  CBetaPBE         ....  0.066725
 LDA part of GGA corr.  LDAOpt          .... PW91-LDA
 Gradients option       PostSCFGGA      .... off
   NL short-range parameter             ....  3.700000
 RI-approximation to the Coulomb term is turned on
   Number of AuxJ basis functions       .... 424


General Settings:
 Integral files         IntName         .... 2-bromopentane
 Hartree-Fock type      HFTyp           .... RHF
 Total Charge           Charge          ....    0
 Multiplicity           Mult            ....    1
 Number of Electrons    NEL             ....   76
 Basis Dimension        Dim             ....  269
 Nuclear Repulsion      ENuc            ....    423.5041688146 Eh

Convergence Acceleration:
 AO-DIIS                CNVDIIS         .... on
   Start iteration      DIISMaxIt       ....    12
   Startup error        DIISStart       ....  0.200000
   # of expansion vecs  DIISMaxEq       ....     5
   Bias factor          DIISBfac        ....   1.050
   Max. coefficient     DIISMaxC        ....  10.000
 MO-DIIS                CNVKDIIS        .... off
 Trust-Rad. Augm. Hess. CNVTRAH         .... auto
   Auto Start mean grad. ratio tolernc. ....  1.125000
   Auto Start start iteration           ....    50
   Auto Start num. interpolation iter.  ....    10
   Max. Number of Micro iterations      ....    24
   Max. Number of Macro iterations      .... Maxiter - #DIIS iter
   Number of Davidson start vectors     ....     2
   Converg. threshold    (grad. norm)   ....   1.000e-05
   Grad. Scal. Fac. for Micro threshold ....   0.100
   Minimum threshold for Micro iter.    ....   1.000e-02
   NR start threshold (gradient norm)   ....   1.000e-04
   Initial trust radius                 ....   0.400
   Minimum AH scaling param. (alpha)    ....   1.000
   Maximum AH scaling param. (alpha)    .... 1000.000
   Quad. conv. algorithm                .... NR
   White noise on init. David. guess    .... on
   Maximum white noise                  ....   0.010
   Pseudo random numbers                .... off
   Inactive MOs                         .... canonical
   Orbital update algorithm             .... Taylor
   Preconditioner                       .... Diag
   Full preconditioner red. dimension   ....   250
 SOSCF                 CNVSOSCF           .... on
   Start iteration     SOSCFMaxIt         ....   150
   Startup grad/error  SOSCFStart         ....  0.003300
   Hessian update      SOSCFHessUp        .... L-BFGS
   Autom. constraints  SOSCFAutoConstrain .... off
 Level Shifting         CNVShift        .... on
   Level shift para.    LevelShift      ....    0.2500
   Turn off err/grad.   ShiftErr        ....    0.0010
 Zerner damping         CNVZerner       .... off
 Static damping         CNVDamp         .... on
   Fraction old density DampFac         ....    0.7000
   Max. Damping (<1)    DampMax         ....    0.9800
   Min. Damping (>=0)   DampMin         ....    0.0000
   Turn off err/grad.   DampErr         ....    0.1000

SCF Procedure:
 Maximum # iterations   MaxIter         ....   125
 SCF integral mode      SCFMode         .... Direct
   Integral package                     .... SHARK and LIBINT hybrid scheme
 Reset frequency        DirectResetFreq ....    20
 Integral Threshold     Thresh          ....  2.500e-11 Eh
 Primitive CutOff       TCut            ....  2.500e-12 Eh

Convergence Tolerance:
 Convergence Check Mode ConvCheckMode   .... Total+1el-Energy
 Convergence forced     ConvForced      .... 0
 Energy Change          TolE            ....  1.000e-08 Eh
 1-El. energy change                    ....  1.000e-05 Eh
 Orbital Gradient       TolG            ....  1.000e-05
 Orbital Rotation angle TolX            ....  1.000e-05
 DIIS Error             TolErr          ....  5.000e-07

------------------------------
INITIAL GUESS: MODEL POTENTIAL
------------------------------
Loading Hartree-Fock densities                     ... done
Calculating cut-offs                               ... done
Initializing the effective Hamiltonian             ... done
Setting up the integral package (SHARK)            ... done
Starting the Coulomb interaction                   ... done (   0.2 sec)
Making the grid                                    ... done (   0.2 sec)
Mapping shells                                     ... done
Starting the XC term evaluation                    ... done (   0.4 sec)
  promolecular density results
     # of electrons  =     75.995198737
     EX              =   -118.462476023
     EC              =     -3.044778179
     EX+EC           =   -121.507254202
Transforming the Hamiltonian                       ... done (   0.0 sec)
Diagonalizing the Hamiltonian                      ... done (   0.0 sec)
Back transforming the eigenvectors                 ... done (   0.0 sec)
Now organizing SCF variables                       ... done
                      ------------------
                      INITIAL GUESS DONE (   0.8 sec)
                      ------------------
             **** ENERGY FILE WAS UPDATED (2-bromopentane.en.tmp) ****
Finished Guess after   0.9 sec
Maximum memory used throughout the entire GUESS-calculation: 23.0 MB

-------------------------------------------------------------------------------------------
                                      ORCA LEAN-SCF
                              memory conserving SCF solver
-------------------------------------------------------------------------------------------

----------------------------------------D-I-I-S--------------------------------------------
Iteration    Energy (Eh)           Delta-E    RMSDP     MaxDP     DIISErr   Damp  Time(sec)
-------------------------------------------------------------------------------------------
               ***  Starting incremental Fock matrix formation  ***
    1    -2770.9327727623667670     0.00e+00  1.26e-03  3.27e-02  1.64e-01  0.700   1.7
    2    -2771.0190993876135508    -8.63e-02  9.79e-04  1.89e-02  7.70e-02  0.700   2.0
                               ***Turning on AO-DIIS***
    3    -2771.0480122590633982    -2.89e-02  4.75e-04  9.95e-03  2.01e-02  0.700   1.9
    4    -2771.0649698059887669    -1.70e-02  7.84e-04  2.10e-02  9.53e-03  0.000   1.6
    5    -2771.1041966048392169    -3.92e-02  2.23e-04  5.80e-03  9.06e-03  0.000   1.5
                              *** Initializing SOSCF ***
---------------------------------------S-O-S-C-F--------------------------------------
Iteration    Energy (Eh)           Delta-E    RMSDP     MaxDP     MaxGrad    Time(sec)
--------------------------------------------------------------------------------------
    6    -2771.1047826538542722    -5.86e-04  9.97e-05  3.03e-03  2.36e-03     1.8
               *** Restarting incremental Fock matrix formation ***
    7    -2771.1048311600520719    -4.85e-05  7.62e-05  2.32e-03  3.22e-04     1.8
    8    -2771.1048313526121092    -1.93e-07  1.19e-05  3.82e-04  2.13e-04     1.5
    9    -2771.1048353472965573    -3.99e-06  1.20e-05  3.10e-04  5.84e-05     1.4
   10    -2771.1048353835767557    -3.63e-08  3.26e-06  1.33e-04  6.25e-05     1.7
   11    -2771.1048355002981225    -1.17e-07  4.12e-06  1.03e-04  2.38e-05     1.2
   12    -2771.1048355066814111    -6.38e-09  1.85e-06  4.75e-05  3.11e-05     1.3
                 **** Energy Check signals convergence ****

               *****************************************************
               *                     SUCCESS                       *
               *           SCF CONVERGED AFTER  12 CYCLES          *
               *****************************************************

             **** ENERGY FILE WAS UPDATED (2-bromopentane.en.tmp) ****

----------------
TOTAL SCF ENERGY
----------------

Total Energy       :      -2771.10483552884534 Eh          -75405.59612 eV

Components:
Nuclear Repulsion  :        423.50416881459097 Eh           11524.13431 eV
Electronic Energy  :      -3194.60900434343648 Eh          -86929.73043 eV
One Electron Energy:      -4688.75385622618978 Eh         -127587.47885 eV
Two Electron Energy:       1494.14485188275330 Eh           40657.74842 eV

Virial components:
Potential Energy   :      -5537.43031206769228 Eh         -150681.13927 eV
Kinetic Energy     :       2766.32547653884740 Eh           75275.54315 eV
Virial Ratio       :          2.00172769221501

DFT components:
N(Alpha)           :       37.999995590606 electrons
N(Beta)            :       37.999995590606 electrons
N(Total)           :       75.999991181212 electrons
E(X)               :     -119.277516077492 Eh       
E(C)               :       -3.041870244384 Eh       
E(XC)              :     -122.319386321876 Eh       

---------------
SCF CONVERGENCE
---------------

  Last Energy change         ...    6.3833e-09  Tolerance :   1.0000e-08
  Last MAX-Density change    ...    4.7480e-05  Tolerance :   1.0000e-07
  Last RMS-Density change    ...    1.8476e-06  Tolerance :   5.0000e-09
  Last DIIS Error            ...    2.3615e-03  Tolerance :   5.0000e-07
  Last Orbital Gradient      ...    3.1094e-05  Tolerance :   1.0000e-05
  Last Orbital Rotation      ...    2.1002e-05  Tolerance :   1.0000e-05


----------------
ORBITAL ENERGIES
----------------

  NO   OCC          E(Eh)            E(eV) 
   0   2.0000    -481.018762    -13089.1860 
   1   2.0000     -61.798550     -1681.6240 
   2   2.0000     -55.703178     -1515.7605 
   3   2.0000     -55.700274     -1515.6815 
   4   2.0000     -55.700134     -1515.6777 
   5   2.0000      -9.953117      -270.8381 
   6   2.0000      -9.900528      -269.4071 
   7   2.0000      -9.894260      -269.2365 
   8   2.0000      -9.890092      -269.1231 
   9   2.0000      -9.881691      -268.8945 
  10   2.0000      -8.395083      -228.4418 
  11   2.0000      -6.269817      -170.6104 
  12   2.0000      -6.258303      -170.2971 
  13   2.0000      -6.258139      -170.2926 
  14   2.0000      -2.469467       -67.1976 
  15   2.0000      -2.466710       -67.1226 
  16   2.0000      -2.466590       -67.1193 
  17   2.0000      -2.457866       -66.8819 
  18   2.0000      -2.457857       -66.8817 
  19   2.0000      -0.765633       -20.8339 
  20   2.0000      -0.708101       -19.2684 
  21   2.0000      -0.662791       -18.0355 
  22   2.0000      -0.622217       -16.9314 
  23   2.0000      -0.540784       -14.7155 
  24   2.0000      -0.522565       -14.2197 
  25   2.0000      -0.433759       -11.8032 
  26   2.0000      -0.409012       -11.1298 
  27   2.0000      -0.394948       -10.7471 
  28   2.0000      -0.379996       -10.3402 
  29   2.0000      -0.357892        -9.7387 
  30   2.0000      -0.344208        -9.3664 
  31   2.0000      -0.329059        -8.9541 
  32   2.0000      -0.308676        -8.3995 
  33   2.0000      -0.302755        -8.2384 
  34   2.0000      -0.291469        -7.9313 
  35   2.0000      -0.289287        -7.8719 
  36   2.0000      -0.237246        -6.4558 
  37   2.0000      -0.235000        -6.3947 
  38   0.0000      -0.028280        -0.7695 
  39   0.0000       0.016492         0.4488 
  40   0.0000       0.031890         0.8678 
  41   0.0000       0.042816         1.1651 
  42   0.0000       0.064593         1.7577 
  43   0.0000       0.071647         1.9496 
  44   0.0000       0.086426         2.3518 
  45   0.0000       0.092818         2.5257 
  46   0.0000       0.096782         2.6336 
  47   0.0000       0.100161         2.7255 
  48   0.0000       0.107650         2.9293 
*Only the first 10 virtual orbitals were printed.
------------------
MOLECULAR ORBITALS (RHF, ROHF)
------------------
                      0         1         2         3         4         5   
                 -481.01876 -61.79855 -55.70318 -55.70027 -55.70013  -9.95312
                   2.00000   2.00000   2.00000   2.00000   2.00000   2.00000
                  --------  --------  --------  --------  --------  --------
  0C   1s        -0.000001  0.000004  0.000006 -0.000002  0.000002  0.000411
  0C   2s         0.000003 -0.000012 -0.000024  0.000006 -0.000009  0.000629
  0C   3s        -0.000013  0.000055  0.000300 -0.000003  0.000036 -0.000202
  0C   4s         0.000073 -0.000355 -0.001029 -0.000077 -0.000209  0.003809
  0C   5s        -0.000015  0.000063 -0.000098  0.000805 -0.001087 -0.016028
  0C   1pz        0.000002 -0.000013  0.000008  0.000022 -0.000029  0.000037
  0C   1px        0.000000 -0.000003  0.000046 -0.000012 -0.000014  0.000188
  0C   1py       -0.000001  0.000002  0.000025 -0.000004  0.000004  0.000056
  0C   2pz       -0.000013  0.000082 -0.000213 -0.000029  0.000249  0.000777
  0C   2px        0.000014 -0.000051 -0.000617  0.000006  0.000037  0.000144
  0C   2py        0.000086 -0.000446 -0.000763  0.000050 -0.000361  0.000517
  0C   3pz       -0.000011  0.000056  0.000221 -0.000074 -0.000343 -0.002177
  0C   3px        0.000018 -0.000103 -0.000125  0.000037 -0.000520 -0.004066
  0C   3py        0.000020 -0.000103 -0.000513  0.000375 -0.000616 -0.003460
  0C   1dz2      -0.000007  0.000039  0.000042 -0.000001  0.000011  0.000086
  0C   1dxz       0.000004 -0.000020 -0.000039  0.000023 -0.000007 -0.000035
  0C   1dyz       0.000000  0.000001 -0.000014  0.000015  0.000004 -0.000072
  0C   1dx2y2    -0.000007  0.000038  0.000033 -0.000009  0.000017 -0.000029
  0C   1dxy       0.000002 -0.000009 -0.000020 -0.000012 -0.000007 -0.000090
  0C   2dz2       0.000040 -0.000224 -0.000012 -0.000013 -0.000086 -0.000137
  0C   2dxz      -0.000026  0.000150  0.000002 -0.000096  0.000107 -0.000682
  0C   2dyz       0.000022 -0.000116 -0.000172 -0.000052 -0.000047 -0.000034
  0C   2dx2y2     0.000050 -0.000271 -0.000251 -0.000034 -0.000047 -0.000425
  0C   2dxy       0.000013 -0.000058 -0.000277  0.000069 -0.000071 -0.001055
  0C   1f0        0.000000 -0.000004  0.000021  0.000018  0.000001  0.000252
  0C   1f+1      -0.000001  0.000003  0.000020  0.000009  0.000018  0.000186
  0C   1f-1      -0.000002  0.000011  0.000039 -0.000016  0.000033  0.000171
  0C   1f+2       0.000002 -0.000010 -0.000017 -0.000001 -0.000009 -0.000276
  0C   1f-2      -0.000002  0.000012 -0.000007 -0.000015  0.000013 -0.000640
  0C   1f+3       0.000002 -0.000010 -0.000049  0.000015 -0.000023  0.000023
  0C   1f-3       0.000005 -0.000026 -0.000031 -0.000000 -0.000048  0.000624
  1C   1s        -0.000004  0.000019 -0.000003  0.000000 -0.000001  0.468081
  1C   2s         0.000013 -0.000064  0.000017 -0.000001  0.000003  0.606803
  1C   3s        -0.000048  0.000305 -0.001122 -0.000044  0.000019  0.041875
  1C   4s         0.000154 -0.000998  0.003034  0.000377 -0.000188 -0.032561
  1C   5s        -0.001266  0.006948  0.008033 -0.000316  0.002621  0.050162
  1C   1pz        0.000002 -0.000014  0.000090 -0.000035 -0.000005 -0.000572
  1C   1px        0.000000 -0.000003  0.000029  0.000013  0.000017 -0.000208
  1C   1py       -0.000017  0.000102 -0.000230  0.000023 -0.000008  0.000766
  1C   2pz       -0.000013  0.000104 -0.000871  0.000253 -0.000067  0.004351
  1C   2px        0.000016 -0.000085 -0.000214 -0.000061  0.000141  0.001588
  1C   2py       -0.000021  0.000086  0.001671 -0.000203  0.000083 -0.003978
  1C   3pz        0.000195 -0.001048 -0.001773  0.001423 -0.001617 -0.001425
  1C   3px       -0.000147  0.000791  0.001479  0.000518 -0.001231  0.002862
  1C   3py       -0.000259  0.001428  0.001218 -0.000380 -0.000509 -0.005084
  1C   1dz2       0.000007 -0.000036 -0.000006  0.000023 -0.000009  0.000062
  1C   1dxz      -0.000003  0.000015  0.000012 -0.000006 -0.000064 -0.000000
  1C   1dyz       0.000007 -0.000037 -0.000014 -0.000056  0.000002  0.000086
  1C   1dx2y2     0.000021 -0.000109 -0.000100  0.000023 -0.000026  0.000147
  1C   1dxy       0.000004 -0.000023 -0.000017  0.000023  0.000042  0.000020
  1C   2dz2      -0.000047  0.000277 -0.000559  0.000001 -0.000092  0.003521
  1C   2dxz       0.000017 -0.000094 -0.000107  0.000009  0.000297 -0.000260
  1C   2dyz      -0.000026  0.000149 -0.000121  0.000378 -0.000057  0.000199
  1C   2dx2y2    -0.000046  0.000260 -0.000392 -0.000045  0.000157  0.001658
  1C   2dxy      -0.000008  0.000048 -0.000174 -0.000103 -0.000322 -0.000012
  1C   1f0       -0.000003  0.000007  0.000122 -0.000007 -0.000013  0.000816
  1C   1f+1      -0.000002  0.000012  0.000029  0.000006 -0.000014  0.000074
  1C   1f-1      -0.000016  0.000093  0.000003  0.000006 -0.000002  0.000014
  1C   1f+2       0.000017 -0.000094 -0.000061 -0.000033  0.000009 -0.000294
  1C   1f-2       0.000003 -0.000016 -0.000000  0.000009  0.000024 -0.000020
  1C   1f+3      -0.000007  0.000041 -0.000019 -0.000011 -0.000042  0.000053
  1C   1f-3       0.000018 -0.000108  0.000126  0.000008 -0.000022 -0.000140
  2H   1s         0.000006 -0.000033 -0.000006  0.000000 -0.000016 -0.000034
  2H   2s         0.000104 -0.000562 -0.000608  0.000026 -0.000391 -0.000486
  2H   3s        -0.000017  0.000104 -0.000136  0.000071 -0.000154 -0.000435
  2H   1pz       -0.000006  0.000032  0.000033 -0.000018  0.000019 -0.000088
  2H   1px        0.000001 -0.000006 -0.000001  0.000011 -0.000012 -0.000326
  2H   1py        0.000021 -0.000114 -0.000132  0.000006 -0.000092 -0.000056
  3H   1s        -0.000008  0.000044  0.000043 -0.000002  0.000013 -0.000137
  3H   2s        -0.000005  0.000028 -0.000084  0.000029  0.000019 -0.000709
  3H   3s         0.000034 -0.000186 -0.000091 -0.000288 -0.000260  0.001490
  3H   1pz       -0.000005  0.000026  0.000036 -0.000014  0.000020 -0.000040
  3H   1px        0.000002 -0.000009 -0.000046 -0.000001 -0.000043 -0.000298
  3H   1py        0.000012 -0.000064 -0.000050 -0.000000 -0.000051 -0.000151
  4H   1s        -0.000014  0.000073  0.000072 -0.000017  0.000037  0.000024
  4H   2s         0.000014 -0.000068 -0.000268  0.000104  0.000075  0.000262
  4H   3s         0.000025 -0.000135  0.000011  0.000015 -0.000485  0.000291
  4H   1pz        0.000003 -0.000014 -0.000062  0.000036  0.000006  0.000058
  4H   1px        0.000002 -0.000010 -0.000026  0.000016 -0.000010 -0.000242
  4H   1py        0.000013 -0.000071 -0.000073  0.000025 -0.000052 -0.000136
  5C   1s        -0.000001  0.000005  0.000007 -0.000007 -0.000002  0.000414
  5C   2s         0.000004 -0.000018 -0.000026  0.000023  0.000007  0.000641
  5C   3s        -0.000030  0.000149  0.000297 -0.000159 -0.000027 -0.000041
  5C   4s         0.000163 -0.000861 -0.001064  0.000536  0.000302  0.003051
  5C   5s         0.000005 -0.000031 -0.001264 -0.002378 -0.003804 -0.023024
  5C   1pz        0.000003 -0.000015 -0.000012  0.000015  0.000034  0.000042
  5C   1px       -0.000003  0.000018 -0.000054 -0.000010  0.000011 -0.000224
  5C   1py       -0.000000  0.000001  0.000010 -0.000020 -0.000002  0.000062
  5C   2pz        0.000003 -0.000008 -0.000101 -0.000054 -0.000291  0.000289
  5C   2px        0.000013 -0.000112  0.000831  0.000175 -0.000252  0.000671
  5C   2py        0.000085 -0.000452 -0.000571  0.000380  0.000003 -0.000244
  5C   3pz       -0.000045  0.000247  0.000152 -0.000279  0.000017 -0.005253
  5C   3px       -0.000266  0.001429  0.002497 -0.000894  0.000505  0.005324
  5C   3py        0.000016 -0.000082 -0.000679  0.000039 -0.001120 -0.003492
  5C   1dz2      -0.000004  0.000021  0.000018 -0.000013  0.000001  0.000073
  5C   1dxz      -0.000003  0.000015  0.000022 -0.000017 -0.000001  0.000012
  5C   1dyz       0.000003 -0.000016 -0.000030  0.000010  0.000014 -0.000053
  5C   1dx2y2    -0.000007  0.000039  0.000030 -0.000012  0.000002 -0.000020
  5C   1dxy      -0.000003  0.000013  0.000016  0.000010 -0.000020  0.000004
  5C   2dz2       0.000011 -0.000062  0.000029  0.000142 -0.000091 -0.000027
  5C   2dxz       0.000031 -0.000184  0.000230  0.000158 -0.000030  0.001067
  5C   2dyz      -0.000007  0.000039  0.000072 -0.000007 -0.000131 -0.000380
  5C   2dx2y2     0.000073 -0.000391 -0.000411  0.000134 -0.000109 -0.001156
  5C   2dxy      -0.000018  0.000085  0.000415 -0.000151 -0.000084  0.001361
  5C   1f0       -0.000003  0.000014  0.000043 -0.000011 -0.000006  0.000350
  5C   1f+1       0.000001 -0.000006 -0.000009  0.000012  0.000015 -0.000069
  5C   1f-1      -0.000007  0.000038  0.000065 -0.000036 -0.000026  0.000119
  5C   1f+2       0.000001 -0.000001 -0.000008  0.000004 -0.000016 -0.000483
  5C   1f-2      -0.000000 -0.000002  0.000043  0.000004 -0.000014  0.000606
  5C   1f+3      -0.000005  0.000028  0.000067 -0.000036 -0.000014 -0.000239
  5C   1f-3       0.000004 -0.000024 -0.000029  0.000027  0.000023  0.000544
  6H   1s         0.000001 -0.000005 -0.000015 -0.000001  0.000005 -0.000016
  6H   2s        -0.000017  0.000092  0.000152 -0.000016  0.000053  0.000019
  6H   3s         0.000005 -0.000033  0.000125  0.000028 -0.000128  0.000404
  6H   1pz        0.000001 -0.000007 -0.000006  0.000009  0.000001 -0.000000
  6H   1px        0.000001 -0.000008 -0.000001  0.000010  0.000008  0.000025
  6H   1py       -0.000002  0.000013  0.000007 -0.000002  0.000010 -0.000014
  7Br  1s         0.997382 -0.325882 -0.000144  0.000002 -0.000000  0.000011
  7Br  2s         0.007484  1.039979  0.000597 -0.000025  0.000002  0.000051
  7Br  3s        -0.003770  0.051443  0.000322 -0.000041  0.000000  0.000203
  7Br  4s         0.003289 -0.024457 -0.000816  0.000102 -0.000001 -0.000471
  7Br  5s        -0.001518  0.008836  0.002502 -0.000296  0.000006 -0.000591
  7Br  6s         0.001205 -0.006690 -0.005482  0.000755 -0.000119  0.001610
  7Br  1pz       -0.000000  0.000103 -0.237243 -0.923367  0.279202 -0.000001
  7Br  1px       -0.000000  0.000062 -0.117293  0.313003  0.935473  0.000001
  7Br  1py        0.000002 -0.000479  0.957439 -0.190445  0.183784  0.000007
  7Br  2pz        0.000002 -0.000000 -0.004314 -0.016653  0.005039  0.000005
  7Br  2px        0.000002 -0.000008 -0.002146  0.005650  0.016889 -0.000002
  7Br  2py       -0.000015  0.000037  0.017487 -0.003454  0.003319 -0.000033
  7Br  3pz       -0.000007  0.000030  0.001727  0.006024 -0.001843 -0.000151
  7Br  3px       -0.000012  0.000058  0.000929 -0.002071 -0.006208 -0.000037
  7Br  3py        0.000064 -0.000301 -0.007415  0.001364 -0.001227  0.000754
  7Br  4pz        0.000007 -0.000025 -0.001471 -0.003967  0.001251  0.000786
  7Br  4px        0.000021 -0.000106 -0.000913  0.001410  0.004275  0.000222
  7Br  4py       -0.000080  0.000347  0.006985 -0.001144  0.000879 -0.003524
  7Br  5pz        0.000044 -0.000247  0.000210  0.001231 -0.000335 -0.000310
  7Br  5px        0.000042 -0.000234  0.000046 -0.000483 -0.001391  0.000048
  7Br  5py       -0.000327  0.001822 -0.000307  0.000130 -0.000278 -0.000745
  7Br  1dz2       0.000003 -0.000036  0.000047 -0.000019  0.000002  0.000014
  7Br  1dxz      -0.000000  0.000003 -0.000003 -0.000002  0.000010  0.000002
  7Br  1dyz       0.000001 -0.000027  0.000034  0.000037 -0.000009 -0.000005
  7Br  1dx2y2     0.000005 -0.000073  0.000068 -0.000008  0.000017 -0.000004
  7Br  1dxy       0.000001 -0.000017  0.000018 -0.000017 -0.000043  0.000002
  7Br  2dz2      -0.000025  0.000159 -0.000206  0.000048  0.000012 -0.000047
  7Br  2dxz       0.000002 -0.000013  0.000005  0.000001 -0.000019 -0.000029
  7Br  2dyz      -0.000012  0.000085 -0.000132 -0.000044  0.000002  0.000110
  7Br  2dx2y2    -0.000051  0.000322 -0.000228  0.000022 -0.000047  0.000190
  7Br  2dxy      -0.000010  0.000067 -0.000061  0.000038  0.000088  0.000014
  7Br  3dz2       0.000053 -0.000318  0.000266 -0.000054 -0.000032 -0.000012
  7Br  3dxz      -0.000005  0.000027  0.000002  0.000005  0.000023  0.000072
  7Br  3dyz       0.000025 -0.000160  0.000168  0.000012  0.000017 -0.000337
  7Br  3dx2y2     0.000107 -0.000630  0.000217 -0.000023  0.000061 -0.000653
  7Br  3dxy       0.000023 -0.000135  0.000062 -0.000042 -0.000082 -0.000091
  7Br  4dz2      -0.000074  0.000405  0.000553 -0.000101  0.000067 -0.001631
  7Br  4dxz       0.000007 -0.000041 -0.000074 -0.000026  0.000013 -0.000003
  7Br  4dyz      -0.000031  0.000173  0.000357  0.000198 -0.000099 -0.000624
  7Br  4dx2y2    -0.000142  0.000772  0.001259 -0.000116  0.000036 -0.001793
  7Br  4dxy      -0.000038  0.000207  0.000291 -0.000055 -0.000211 -0.000354
  7Br  1f0        0.000001 -0.000010  0.000129  0.000047 -0.000006 -0.000206
  7Br  1f+1      -0.000000 -0.000000  0.000023 -0.000017 -0.000015 -0.000051
  7Br  1f-1       0.000001  0.000004 -0.000233  0.000071 -0.000024  0.000431
  7Br  1f+2       0.000001 -0.000008  0.000159  0.000073 -0.000024 -0.000251
  7Br  1f-2      -0.000000  0.000002  0.000037  0.000011 -0.000019 -0.000043
  7Br  1f+3       0.000002 -0.000005 -0.000114  0.000039  0.000107  0.000104
  7Br  1f-3      -0.000002 -0.000002  0.000351 -0.000022  0.000046 -0.000353
  8C   1s        -0.000001  0.000004  0.000005 -0.000001 -0.000003 -0.000028
  8C   2s         0.000003 -0.000016 -0.000019  0.000004  0.000012  0.000009
  8C   3s        -0.000036  0.000186  0.000366  0.000011 -0.000292 -0.000774
  8C   4s         0.000059 -0.000273 -0.001173 -0.000225  0.001030  0.002480
  8C   5s         0.000364 -0.001996 -0.001680  0.001852  0.001103  0.007597
  8C   1pz        0.000001 -0.000005 -0.000024 -0.000001  0.000008  0.000054
  8C   1px        0.000002 -0.000012 -0.000020  0.000020  0.000020 -0.000065
  8C   1py       -0.000003  0.000016  0.000012 -0.000026 -0.000002  0.000082
  8C   2pz        0.000012 -0.000077  0.000219  0.000080 -0.000099 -0.000702
  8C   2px        0.000072 -0.000395 -0.000152 -0.000017 -0.000084  0.002325
  8C   2py        0.000026 -0.000146  0.000055  0.000238 -0.000083 -0.001034
  8C   3pz        0.000038 -0.000210 -0.000527 -0.000552 -0.000272 -0.002045
  8C   3px       -0.000166  0.000896  0.001523  0.000034 -0.001309  0.001388
  8C   3py       -0.000027  0.000149  0.000022 -0.000592  0.000263 -0.001985
  8C   1dz2       0.000002 -0.000011 -0.000026  0.000001  0.000004  0.000062
  8C   1dxz       0.000003 -0.000014 -0.000006 -0.000016  0.000008  0.000076
  8C   1dyz       0.000001 -0.000006 -0.000009  0.000000  0.000011 -0.000033
  8C   1dx2y2    -0.000009  0.000046  0.000048 -0.000005 -0.000030 -0.000124
  8C   1dxy       0.000001 -0.000006 -0.000029  0.000010  0.000021  0.000056
  8C   2dz2      -0.000008  0.000038  0.000213  0.000014 -0.000037 -0.000323
  8C   2dxz      -0.000039  0.000217  0.000072  0.000085 -0.000058 -0.000990
  8C   2dyz      -0.000020  0.000111  0.000070 -0.000068 -0.000023  0.000639
  8C   2dx2y2     0.000041 -0.000215 -0.000387 -0.000040  0.000219  0.000624
  8C   2dxy      -0.000046  0.000245  0.000278 -0.000086 -0.000060 -0.000680
  8C   1f0        0.000006 -0.000029 -0.000043 -0.000003  0.000037  0.000063
  8C   1f+1      -0.000000  0.000001  0.000003 -0.000007  0.000009 -0.000061
  8C   1f-1      -0.000001  0.000006 -0.000004 -0.000009 -0.000028  0.000027
  8C   1f+2      -0.000004  0.000020  0.000051 -0.000008 -0.000018 -0.000073
  8C   1f-2       0.000007 -0.000040 -0.000043  0.000006  0.000013  0.000022
  8C   1f+3       0.000001 -0.000002 -0.000016  0.000008  0.000022 -0.000099
  8C   1f-3      -0.000000  0.000004 -0.000025 -0.000015  0.000018  0.000134
  9H   1s         0.000004 -0.000023 -0.000001  0.000008 -0.000001 -0.000126
  9H   2s         0.000098 -0.000530 -0.000625  0.000477 -0.000062 -0.000732
  9H   3s        -0.000033  0.000185  0.000043  0.000166 -0.000096  0.000311
  9H   1pz       -0.000003  0.000014  0.000030 -0.000015 -0.000013 -0.000112
  9H   1px       -0.000002  0.000009 -0.000005 -0.000015 -0.000008  0.000287
  9H   1py        0.000020 -0.000105 -0.000134  0.000092 -0.000004 -0.000101
 10H   1s        -0.000010  0.000053  0.000060 -0.000051 -0.000040  0.000021
 10H   2s         0.000011 -0.000055 -0.000080 -0.000003  0.000133 -0.000044
 10H   3s         0.000029 -0.000157 -0.000147  0.000682  0.000731 -0.000421
 10H   1pz        0.000003 -0.000015 -0.000037  0.000017 -0.000005 -0.000041
 10H   1px       -0.000001  0.000004  0.000019 -0.000007  0.000003  0.000214
 10H   1py        0.000009 -0.000050 -0.000047  0.000060  0.000018 -0.000179
 11C   1s         0.000000 -0.000000 -0.000001  0.000000 -0.000001 -0.000013
 11C   2s        -0.000000  0.000002  0.000004 -0.000001  0.000003 -0.000000
 11C   3s         0.000020 -0.000103 -0.000190 -0.000025  0.000056  0.000486
 11C   4s        -0.000126  0.000665  0.001112  0.000122 -0.000336 -0.003250
 11C   5s         0.000130 -0.000687 -0.002085 -0.000861  0.000508 -0.005377
 11C   1pz       -0.000000  0.000002 -0.000006 -0.000003  0.000001  0.000050
 11C   1px       -0.000001  0.000005  0.000009 -0.000002 -0.000007 -0.000052
 11C   1py        0.000003 -0.000015 -0.000010  0.000002  0.000004  0.000071
 11C   2pz       -0.000019  0.000097  0.000230  0.000091 -0.000116 -0.001104
 11C   2px        0.000056 -0.000297 -0.000431 -0.000030  0.000201  0.002049
 11C   2py       -0.000051  0.000274  0.000318  0.000037 -0.000114 -0.001263
 11C   3pz       -0.000034  0.000189  0.000157 -0.000297  0.000273 -0.000523
 11C   3px       -0.000056  0.000300  0.000771  0.000069  0.000075  0.001783
 11C   3py        0.000018 -0.000099 -0.000111 -0.000200  0.000017 -0.000353
 11C   1dz2       0.000001 -0.000006 -0.000015  0.000001 -0.000008  0.000029
 11C   1dxz       0.000001 -0.000005 -0.000012 -0.000004  0.000006  0.000027
 11C   1dyz      -0.000001  0.000006  0.000006 -0.000002 -0.000015 -0.000016
 11C   1dx2y2    -0.000003  0.000014  0.000018 -0.000002 -0.000001 -0.000059
 11C   1dxy       0.000001 -0.000006 -0.000011 -0.000014  0.000001  0.000031
 11C   2dz2      -0.000010  0.000054  0.000091 -0.000085  0.000081  0.000228
 11C   2dxz       0.000020 -0.000108 -0.000167  0.000034  0.000044  0.000541
 11C   2dyz      -0.000008  0.000040  0.000093  0.000042  0.000002 -0.000366
 11C   2dx2y2     0.000002 -0.000015  0.000012  0.000053 -0.000014 -0.000265
 11C   2dxy       0.000025 -0.000132 -0.000149  0.000028  0.000100  0.000623
 11C   1f0        0.000002 -0.000012 -0.000023 -0.000001  0.000003  0.000063
 11C   1f+1       0.000000 -0.000001 -0.000007  0.000004 -0.000005 -0.000002
 11C   1f-1      -0.000000  0.000000  0.000006 -0.000007 -0.000001 -0.000002
 11C   1f+2      -0.000000  0.000000  0.000010  0.000006 -0.000000 -0.000032
 11C   1f-2       0.000003 -0.000018 -0.000027  0.000002  0.000007  0.000090
 11C   1f+3       0.000002 -0.000012 -0.000007 -0.000000  0.000004  0.000023
 11C   1f-3       0.000002 -0.000009 -0.000014 -0.000011  0.000018  0.000080
 12H   1s         0.000004 -0.000024 -0.000024 -0.000016  0.000020  0.000104
 12H   2s        -0.000024  0.000123  0.000196 -0.000071 -0.000202  0.000115
 12H   3s        -0.000017  0.000100 -0.000004  0.000258  0.000310 -0.000107
 12H   1pz        0.000001 -0.000004  0.000004  0.000003 -0.000006 -0.000061
 12H   1px        0.000002 -0.000013 -0.000033 -0.000007 -0.000030  0.000013
 12H   1py        0.000007 -0.000038 -0.000050  0.000023  0.000049  0.000035
 13H   1s         0.000001 -0.000003 -0.000038  0.000002 -0.000004  0.000075
 13H   2s        -0.000049  0.000267  0.000287 -0.000025 -0.000254 -0.000019
 13H   3s        -0.000064  0.000353  0.000568  0.000082  0.000206  0.000294
 13H   1pz        0.000008 -0.000044 -0.000049  0.000001  0.000053  0.000029
 13H   1px        0.000002 -0.000009 -0.000019 -0.000031  0.000023  0.000062
 13H   1py       -0.000002  0.000011  0.000010  0.000012 -0.000023 -0.000058
 14H   1s         0.000003 -0.000017 -0.000026  0.000006 -0.000012 -0.000008
 14H   2s         0.000011 -0.000061 -0.000028  0.000105  0.000011 -0.000037
 14H   3s        -0.000044  0.000241  0.000373 -0.000175  0.000045  0.000120
 14H   1pz        0.000005 -0.000026 -0.000027  0.000018 -0.000001 -0.000010
 14H   1px       -0.000001  0.000003  0.000002  0.000013 -0.000004  0.000027
 14H   1py        0.000000 -0.000000  0.000005 -0.000002  0.000013  0.000004
 15H   1s        -0.000002  0.000009  0.000001 -0.000021 -0.000005 -0.000032
 15H   2s        -0.000008  0.000045  0.000046 -0.000050  0.000004  0.000112
 15H   3s         0.000027 -0.000146 -0.000205  0.000266 -0.000097 -0.000042
 15H   1pz        0.000004 -0.000021 -0.000026  0.000019  0.000001  0.000027
 15H   1px       -0.000002  0.000008  0.000019  0.000011 -0.000009 -0.000061
 15H   1py        0.000001 -0.000007 -0.000009  0.000004  0.000008  0.000027
 16H   1s        -0.000004  0.000023  0.000070  0.000018 -0.000029 -0.000668
 16H   2s         0.000112 -0.000608 -0.000413 -0.000362  0.000362 -0.005036
 16H   3s         0.000089 -0.000505 -0.000441 -0.000969  0.000578 -0.006847
 16H   1pz       -0.000012  0.000060  0.000067  0.000068 -0.000054  0.002389
 16H   1px       -0.000001  0.000004  0.000001  0.000009 -0.000013  0.000090
 16H   1py        0.000023 -0.000124 -0.000205 -0.000107  0.000046 -0.000188
                      6         7         8         9        10        11   
                  -9.90053  -9.89426  -9.89009  -9.88169  -8.39508  -6.26982
                   2.00000   2.00000   2.00000   2.00000   2.00000   2.00000
                  --------  --------  --------  --------  --------  --------
  0C   1s        -0.000151  0.467966 -0.000176  0.000001 -0.000003 -0.000000
  0C   2s        -0.000181  0.606741 -0.000244  0.000004  0.000029  0.000005
  0C   3s        -0.000229  0.039035 -0.000542  0.000028 -0.000081 -0.000005
  0C   4s         0.000073 -0.021016  0.003325 -0.000273  0.000730  0.000158
  0C   5s        -0.001700  0.037145  0.003136 -0.001414 -0.000450  0.000897
  0C   1pz       -0.000061  0.000120 -0.000038  0.000007  0.000036  0.000012
  0C   1px       -0.000060  0.000473 -0.000046 -0.000001  0.000012 -0.000002
  0C   1py        0.000006  0.000185 -0.000079  0.000003  0.000003  0.000008
  0C   2pz        0.000277 -0.000464  0.000948 -0.000133 -0.000316 -0.000072
  0C   2px       -0.001080 -0.002095  0.001971 -0.000149 -0.000041  0.000119
  0C   2py        0.000044 -0.000974  0.001490 -0.000205  0.001061  0.000500
  0C   3pz        0.000828  0.000202  0.000090 -0.000199 -0.000183 -0.000157
  0C   3px       -0.000831  0.003424  0.001606 -0.000855  0.000254  0.000264
  0C   3py        0.000046  0.000416  0.000003  0.000058  0.000135  0.000611
  0C   1dz2       0.000057 -0.000020 -0.000029 -0.000002 -0.000102 -0.000039
  0C   1dxz       0.000004 -0.000011  0.000038  0.000004  0.000051  0.000017
  0C   1dyz      -0.000024 -0.000012  0.000028  0.000003 -0.000004  0.000003
  0C   1dx2y2    -0.000143 -0.000002  0.000043  0.000009 -0.000103 -0.000054
  0C   1dxy       0.000062 -0.000007  0.000033 -0.000010  0.000015  0.000010
  0C   2dz2       0.000087  0.000510 -0.000265  0.000007  0.000678  0.000192
  0C   2dxz      -0.000145 -0.000478  0.000421 -0.000110 -0.000450 -0.000158
  0C   2dyz       0.000426 -0.000263  0.000355 -0.000042  0.000255  0.000121
  0C   2dx2y2     0.000353 -0.000185  0.000295 -0.000054  0.000756  0.000237
  0C   2dxy      -0.000457 -0.000776  0.000748 -0.000071  0.000044  0.000132
  0C   1f0       -0.000058 -0.001359 -0.000069  0.000011  0.000029  0.000013
  0C   1f+1       0.000046 -0.000148 -0.000015 -0.000011  0.000004 -0.000004
  0C   1f-1      -0.000007  0.000528 -0.000011  0.000011 -0.000023 -0.000012
  0C   1f+2       0.000069  0.000155  0.000024 -0.000018  0.000026 -0.000008
  0C   1f-2       0.000033 -0.000295  0.000099 -0.000012 -0.000039 -0.000012
  0C   1f+3       0.000047  0.000209  0.000049 -0.000020  0.000009  0.000031
  0C   1f-3      -0.000048 -0.001115 -0.000092  0.000009  0.000086  0.000033
  1C   1s        -0.000455 -0.000452 -0.000020  0.000009 -0.000007  0.000014
  1C   2s        -0.000484 -0.000498 -0.000073  0.000029  0.000140  0.000064
  1C   3s        -0.000186  0.000535  0.000803  0.000371 -0.001051 -0.000223
  1C   4s         0.003270 -0.000105 -0.002249 -0.002598  0.004130  0.000698
  1C   5s        -0.012103 -0.001717 -0.004156 -0.003268 -0.022474 -0.008058
  1C   1pz       -0.000061 -0.000056 -0.000048 -0.000058  0.000051  0.000019
  1C   1px        0.000239 -0.000341 -0.000068  0.000064  0.000004  0.000009
  1C   1py       -0.000149 -0.000232 -0.000080 -0.000036 -0.000247 -0.000138
  1C   2pz       -0.000931 -0.000169  0.000375  0.001274 -0.000456  0.000076
  1C   2px        0.000742  0.001894  0.002857 -0.002347  0.000294  0.000079
  1C   2py       -0.000173  0.000455  0.000892  0.000813 -0.000634 -0.000414
  1C   3pz       -0.001768 -0.002949  0.000598  0.000735  0.003191  0.001497
  1C   3px       -0.004768  0.005491  0.000602 -0.002328 -0.002379 -0.001429
  1C   3py        0.001995  0.002374  0.001500 -0.000146 -0.005217 -0.000477
  1C   1dz2       0.000051  0.000089 -0.000084  0.000033  0.000066  0.000038
  1C   1dxz       0.000021 -0.000068  0.000063  0.000023 -0.000041 -0.000012
  1C   1dyz      -0.000040 -0.000032  0.000018  0.000001  0.000077  0.000033
  1C   1dx2y2    -0.000045 -0.000033  0.000166 -0.000045  0.000216  0.000126
  1C   1dxy      -0.000040 -0.000030  0.000051  0.000030  0.000047  0.000022
  1C   2dz2      -0.000121  0.000195  0.000165  0.000213 -0.000701 -0.000193
  1C   2dxz       0.000840 -0.001359 -0.000873  0.000806  0.000276  0.000099
  1C   2dyz      -0.000097 -0.000613 -0.000510 -0.000346 -0.000293 -0.000144
  1C   2dx2y2    -0.000442 -0.000793 -0.000674 -0.000393 -0.000304 -0.000341
  1C   2dxy       0.000717 -0.001932 -0.000924  0.000605 -0.000064 -0.000017
  1C   1f0       -0.000390 -0.000398 -0.000114 -0.000043  0.000004  0.000029
  1C   1f+1       0.000088 -0.000260 -0.000129 -0.000007 -0.000028 -0.000002
  1C   1f-1      -0.000161 -0.000258 -0.000037  0.000017 -0.000229 -0.000163
  1C   1f+2       0.000526  0.000368  0.000081  0.000057  0.000197  0.000148
  1C   1f-2      -0.000551  0.000758  0.000025 -0.000106  0.000030  0.000026
  1C   1f+3       0.000151 -0.000002 -0.000082  0.000014 -0.000105 -0.000069
  1C   1f-3      -0.000465 -0.000613 -0.000134 -0.000054  0.000285  0.000196
  2H   1s         0.000092 -0.000517  0.000027 -0.000021  0.000080  0.000019
  2H   2s         0.000091 -0.002971  0.000058  0.000072  0.001592  0.000628
  2H   3s         0.000541 -0.006312 -0.000355  0.000150 -0.000466  0.000136
  2H   1pz        0.000060  0.000470 -0.000002  0.000007 -0.000096 -0.000027
  2H   1px       -0.000110  0.000048  0.000022  0.000006  0.000004  0.000016
  2H   1py       -0.000019 -0.002272  0.000029 -0.000002  0.000309  0.000121
  3H   1s        -0.000071 -0.000592  0.000018  0.000000 -0.000120 -0.000033
  3H   2s        -0.001093 -0.003170 -0.000126  0.000033  0.000024 -0.000006
  3H   3s        -0.000483 -0.004558  0.000456 -0.000373  0.000648 -0.000006
[...]
      py      :     0.974712
      dz2     :     0.028514  d :     0.092696
      dxz     :     0.017987
      dyz     :     0.002736
      dx2y2   :     0.026486
      dxy     :     0.016973
      f0      :     0.000617  f :     0.005273
      f+1     :     0.001275
      f-1     :     0.000325
      f+2     :     0.000543
      f-2     :     0.000521
      f+3     :     0.001044
      f-3     :     0.000948

  6 H s       :     0.885279  s :     0.885279
      pz      :     0.004652  p :     0.020657
      px      :     0.004650
      py      :     0.011354

  7 Brs       :     7.960702  s :     7.960702
      pz      :     5.952818  p :    17.186427
      px      :     5.959617
      py      :     5.273992
      dz2     :     2.006704  d :    10.045774
      dxz     :     2.000831
      dyz     :     2.011294
      dx2y2   :     2.016961
      dxy     :     2.009983
      f0      :     0.000447  f :     0.005702
      f+1     :     0.000094
      f-1     :     0.001206
      f+2     :     0.000860
      f-2     :     0.000118
      f+3     :     0.001208
      f-3     :     0.001769

  8 C s       :     3.145060  s :     3.145060
      pz      :     0.969428  p :     2.886976
      px      :     0.911090
      py      :     1.006458
      dz2     :     0.027280  d :     0.094120
      dxz     :     0.017010
      dyz     :     0.002760
      dx2y2   :     0.029228
      dxy     :     0.017843
      f0      :     0.000589  f :     0.005312
      f+1     :     0.001204
      f-1     :     0.000334
      f+2     :     0.000591
      f-2     :     0.000537
      f+3     :     0.001114
      f-3     :     0.000943

  9 H s       :     0.903617  s :     0.903617
      pz      :     0.004595  p :     0.020966
      px      :     0.004505
      py      :     0.011865

 10 H s       :     0.894819  s :     0.894819
      pz      :     0.011958  p :     0.021130
      px      :     0.004439
      py      :     0.004732

 11 C s       :     3.206265  s :     3.206265
      pz      :     1.032108  p :     3.045094
      px      :     0.986413
      py      :     1.026573
      dz2     :     0.016503  d :     0.054255
      dxz     :     0.010026
      dyz     :     0.002022
      dx2y2   :     0.017448
      dxy     :     0.008256
      f0      :     0.000566  f :     0.003201
      f+1     :     0.000527
      f-1     :     0.000269
      f+2     :     0.000344
      f-2     :     0.000230
      f+3     :     0.000549
      f-3     :     0.000716

 12 H s       :     0.875774  s :     0.875774
      pz      :     0.004555  p :     0.021639
      px      :     0.004644
      py      :     0.012440

 13 H s       :     0.909820  s :     0.909820
      pz      :     0.011637  p :     0.020903
      px      :     0.004482
      py      :     0.004784

 14 H s       :     0.879672  s :     0.879672
      pz      :     0.011120  p :     0.020695
      px      :     0.004722
      py      :     0.004852

 15 H s       :     0.869030  s :     0.869030
      pz      :     0.005814  p :     0.020908
      px      :     0.009742
      py      :     0.005352

 16 H s       :     0.889705  s :     0.889705
      pz      :     0.012978  p :     0.021990
      px      :     0.004720
      py      :     0.004291



                     *******************************
                     * LOEWDIN POPULATION ANALYSIS *
                     *******************************

----------------------
LOEWDIN ATOMIC CHARGES
----------------------
   0 C :   -0.311278
   1 C :   -0.421593
   2 H :    0.125831
   3 H :    0.124099
   4 H :    0.124551
   5 C :   -0.273126
   6 H :    0.116047
   7 Br:    0.190146
   8 C :   -0.292806
   9 H :    0.145022
  10 H :    0.140162
  11 C :   -0.311728
  12 H :    0.134122
  13 H :    0.132042
  14 H :    0.118317
  15 H :    0.119287
  16 H :    0.140906

-------------------------------
LOEWDIN REDUCED ORBITAL CHARGES
-------------------------------
  0 C s       :     2.846752  s :     2.846752
      pz      :     1.074345  p :     3.182117
      px      :     1.042034
      py      :     1.065737
      dz2     :     0.072832  d :     0.258274
      dxz     :     0.047428
      dyz     :     0.015594
      dx2y2   :     0.081042
      dxy     :     0.041378
      f0      :     0.003517  f :     0.024135
      f+1     :     0.002787
      f-1     :     0.002030
      f+2     :     0.003582
      f-2     :     0.004613
      f+3     :     0.002998
      f-3     :     0.004607

  1 C s       :     2.830701  s :     2.830701
      pz      :     1.043217  p :     3.016429
      px      :     1.054582
      py      :     0.918629
      dz2     :     0.131176  d :     0.528901
      dxz     :     0.076098
      dyz     :     0.057759
      dx2y2   :     0.152586
      dxy     :     0.111283
      f0      :     0.004976  f :     0.045563
      f+1     :     0.006479
      f-1     :     0.003077
      f+2     :     0.006743
      f-2     :     0.006555
      f+3     :     0.010261
      f-3     :     0.007471

  2 H s       :     0.813712  s :     0.813712
      pz      :     0.014072  p :     0.060457
      px      :     0.012561
      py      :     0.033824

  3 H s       :     0.814671  s :     0.814671
      pz      :     0.017090  p :     0.061230
      px      :     0.027868
      py      :     0.016272

  4 H s       :     0.814453  s :     0.814453
      pz      :     0.035331  p :     0.060996
      px      :     0.012515
      py      :     0.013150

  5 C s       :     2.792546  s :     2.792546
      pz      :     1.028172  p :     3.049004
      px      :     0.999998
      py      :     1.020834
      dz2     :     0.111041  d :     0.394711
      dxz     :     0.076154
      dyz     :     0.018742
      dx2y2   :     0.120043
      dxy     :     0.068731
      f0      :     0.003641  f :     0.036865
      f+1     :     0.006880
      f-1     :     0.003155
      f+2     :     0.004929
      f-2     :     0.006077
      f+3     :     0.005647
      f-3     :     0.006536

  6 H s       :     0.823667  s :     0.823667
      pz      :     0.013391  p :     0.060286
      px      :     0.012775
      py      :     0.034120

  7 Brs       :     7.661385  s :     7.661385
      pz      :     5.902654  p :    17.036334
      px      :     5.884366
      py      :     5.249314
      dz2     :     2.014831  d :    10.101112
      dxz     :     2.001247
      dyz     :     2.023370
      dx2y2   :     2.038004
      dxy     :     2.023660
      f0      :     0.000913  f :     0.011023
      f+1     :     0.000149
      f-1     :     0.002185
      f+2     :     0.001772
      f-2     :     0.000184
      f+3     :     0.002431
      f-3     :     0.003389

  8 C s       :     2.791421  s :     2.791421
      pz      :     1.023449  p :     3.072008
      px      :     1.009997
      py      :     1.038561
      dz2     :     0.109696  d :     0.391934
      dxz     :     0.074803
      dyz     :     0.020294
      dx2y2   :     0.116440
      dxy     :     0.070701
      f0      :     0.003574  f :     0.037443
      f+1     :     0.006488
      f-1     :     0.003383
      f+2     :     0.005081
      f-2     :     0.006350
      f+3     :     0.006192
      f-3     :     0.006375

  9 H s       :     0.796869  s :     0.796869
      pz      :     0.013151  p :     0.058109
      px      :     0.012187
      py      :     0.032771

 10 H s       :     0.801210  s :     0.801210
      pz      :     0.033134  p :     0.058627
      px      :     0.011992
      py      :     0.013502

 11 C s       :     2.843379  s :     2.843379
      pz      :     1.071027  p :     3.185378
      px      :     1.046069
      py      :     1.068282
      dz2     :     0.072987  d :     0.258946
      dxz     :     0.048748
      dyz     :     0.014718
      dx2y2   :     0.081542
      dxy     :     0.040951
      f0      :     0.002951  f :     0.024025
      f+1     :     0.002871
      f-1     :     0.002766
      f+2     :     0.003419
      f-2     :     0.004305
      f+3     :     0.003190
      f-3     :     0.004523

 12 H s       :     0.805838  s :     0.805838
      pz      :     0.012961  p :     0.060040
      px      :     0.012618
      py      :     0.034460

 13 H s       :     0.809923  s :     0.809923
      pz      :     0.031626  p :     0.058035
      px      :     0.012297
      py      :     0.014112

 14 H s       :     0.821315  s :     0.821315
      pz      :     0.033405  p :     0.060368
      px      :     0.012822
      py      :     0.014141

 15 H s       :     0.820210  s :     0.820210
      pz      :     0.017525  p :     0.060503
      px      :     0.027117
      py      :     0.015862

 16 H s       :     0.798983  s :     0.798983
      pz      :     0.036281  p :     0.060110
      px      :     0.012702
      py      :     0.011127



                      *****************************
                      * MAYER POPULATION ANALYSIS *
                      *****************************

  NA   - Mulliken gross atomic population
  ZA   - Total nuclear charge
  QA   - Mulliken gross atomic charge
  VA   - Mayer's total valence
  BVA  - Mayer's bonded valence
  FA   - Mayer's free valence

  ATOM       NA         ZA         QA         VA         BVA        FA
  0 C      6.2887     6.0000    -0.2887     3.9052     3.9052    -0.0000
  1 C      5.9458     6.0000     0.0542     3.9749     3.9749    -0.0000
  2 H      0.8994     1.0000     0.1006     0.9788     0.9788    -0.0000
  3 H      0.8775     1.0000     0.1225     0.9819     0.9819     0.0000
  4 H      0.8918     1.0000     0.1082     0.9912     0.9912    -0.0000
  5 C      6.1812     6.0000    -0.1812     3.9991     3.9991    -0.0000
  6 H      0.9059     1.0000     0.0941     0.9776     0.9776    -0.0000
  7 Br    35.1986    35.0000    -0.1986     1.0816     1.0816     0.0000
  8 C      6.1315     6.0000    -0.1315     3.9767     3.9767    -0.0000
  9 H      0.9246     1.0000     0.0754     0.9778     0.9778    -0.0000
 10 H      0.9159     1.0000     0.0841     0.9909     0.9909     0.0000
 11 C      6.3088     6.0000    -0.3088     3.9452     3.9452    -0.0000
 12 H      0.8974     1.0000     0.1026     0.9877     0.9877    -0.0000
 13 H      0.9307     1.0000     0.0693     0.9758     0.9758    -0.0000
 14 H      0.9004     1.0000     0.0996     0.9783     0.9783    -0.0000
 15 H      0.8899     1.0000     0.1101     0.9714     0.9714    -0.0000
 16 H      0.9117     1.0000     0.0883     0.9758     0.9758    -0.0000

  Mayer bond orders larger than 0.100000
B(  0-C ,  1-C ) :   1.0106 B(  0-C ,  2-H ) :   0.9475 B(  0-C ,  3-H ) :   0.9640 
B(  0-C ,  4-H ) :   0.9652 B(  1-C ,  5-C ) :   1.0293 B(  1-C ,  7-Br) :   0.9453 
B(  1-C , 16-H ) :   0.9524 B(  5-C ,  8-C ) :   1.0399 B(  5-C ,  9-H ) :   0.9277 
B(  5-C , 10-H ) :   0.9461 B(  6-H , 11-C ) :   0.9690 B(  8-C , 11-C ) :   1.0167 
B(  8-C , 12-H ) :   0.9484 B(  8-C , 13-H ) :   0.9469 B( 11-C , 14-H ) :   0.9701 
B( 11-C , 15-H ) :   0.9688 

-------
TIMINGS
-------

Total SCF time: 0 days 0 hours 0 min 8 sec 

Total time                  ....       8.017 sec
Sum of individual times     ....       6.791 sec  ( 84.7%)

SCF preparation             ....       0.055 sec  (  0.7%)
Fock matrix formation       ....       6.539 sec  ( 81.6%)
  Startup                   ....       0.002 sec  (  0.0% of F)
  Split-RI-J                ....       1.811 sec  ( 27.7% of F)
  XC integration            ....       5.840 sec  ( 89.3% of F)
    Basis function eval.    ....       2.135 sec  ( 36.6% of XC)
    Density eval.           ....       1.051 sec  ( 18.0% of XC)
    XC-Functional eval.     ....       0.130 sec  (  2.2% of XC)
    XC-Potential eval.      ....       2.124 sec  ( 36.4% of XC)
Diagonalization             ....       0.000 sec  (  0.0%)
Density matrix formation    ....       0.011 sec  (  0.1%)
Total Energy calculation    ....       0.001 sec  (  0.0%)
Population analysis         ....       0.038 sec  (  0.5%)
Orbital Transformation      ....       0.090 sec  (  1.1%)
Orbital Orthonormalization  ....       0.000 sec  (  0.0%)
DIIS solution               ....       0.016 sec  (  0.2%)
SOSCF solution              ....       0.040 sec  (  0.5%)
Finished LeanSCF after   8.1 sec

Maximum memory used throughout the entire LEANSCF-calculation: 29.3 MB

-------------------------   --------------------
FINAL SINGLE POINT ENERGY     -2771.107227263565
-------------------------   --------------------

                                *** OPTIMIZATION RUN DONE ***


------------------------------------------------------------------------------
                              ORCA PROPERTY CALCULATIONS
------------------------------------------------------------------------------

GBWName                                 ... 2-bromopentane.gbw
Number of atoms                         ...     17
Number of basis functions               ...    269
Max core memory                         ...  16384 MB

Electric properties:
Dipole moment                           ... YES
Quadrupole moment                       ...  NO
Static polarizability (Dipole/Dipole)   ...  NO
Static polarizability (Dipole/Quad.)    ...  NO
Static polarizability (Quad./Quad.)     ...  NO
Static polarizability (Velocity)        ...  NO
Static hyperpolarizability              ...  NO

Atomic electric properties:
Dipole moment                           ...  NO
Quadrupole moment                       ...  NO
Static polarizability                   ...  NO

Choice of electric origin               ... Center of mass
Position of electric origin             ...    -3.112994     3.976879     0.111442

General magnetic properties:
Magnetizability                         ...  NO

EPR properties:
g-Tensor (aka g-matrix)                 ...  NO
Zero-Field splitting spin-orbit         ...  NO
Zero-field splitting spin-spin          ...  NO
Hyperfine couplings                     ...  NO (   0 nuclei)
Quadrupole couplings                    ...  NO (   0 nuclei)
Contact density                         ...  NO (   0 nuclei)

NMR properties:
Chemical shifts                         ...  NO (   0 nuclei)
Spin-rotation constants                 ...  NO (   0 nuclei)
Spin-spin couplings                     ...  NO (   0 nuclei,    0 pairs)

Choice of magnetic origin               ... GIAO
Position of magnetic origin             ...     0.000000     0.000000     0.000000

Properties with geometric perturbations:
SCF Hessian                             ...  NO
IR spectrum                             ...  NO
VCD spectrum                            ...  NO
X-ray spectroscopy properties:
SCF XES/XAS/RIXS spectra                ...  NO

SCF SOC stabilization energy            ...  NO
Diagonal Born-Oppenheimer correction    ...  NO

-------------
DIPOLE MOMENT
-------------

Method             : SCF
Type of density    : Electron Density
Multiplicity       :   1
Irrep              :   0
Energy             : -2771.1072272635651643 Eh
Basis              : AO
                                X                 Y                 Z
Electronic contribution:    -15.436372667      24.248734126       1.109095738
Nuclear contribution   :     15.562582124     -25.116702938      -1.023589121
                        -----------------------------------------
Total Dipole Moment    :      0.126209456      -0.867968812       0.085506617
                        -----------------------------------------
Magnitude (a.u.)       :      0.881254825
Magnitude (Debye)      :      2.239971752



--------------------
Rotational spectrum 
--------------------
 
Rotational constants in cm-1:             0.108156             0.038558             0.029874 
Rotational constants in MHz :          3242.433815          1155.940834           895.591218 

Dipole components along the rotational axes: 
x,y,z [a.u.] :    -0.585374    -0.643491     0.140951 
x,y,z [Debye]:    -1.487902    -1.635624     0.358268 

 

Dipole moment calculation done in   0.0 sec 

Maximum memory used throughout the entire PROP-calculation: 20.7 MB

--------------------------------
SUGGESTED CITATIONS FOR THIS RUN
--------------------------------

Below you find a list of papers that are relevant to this ORCA run
We neither can nor want to force you to cite these papers, but we appreciate if you do
You receive ORCA, which is the product of decades of hard work by many enthusiastic individuals, for free
The only thing we kindly ask in return is that you cite our papers,
We deeply appreciate it, if you show your appreciation for ORCA by not just citing the generic ORCA reference.

Please note that relegating all ORCA citations to the supporting information does *not* help us.
SI sections are not indexed - citations you put there will not count into any citation statistics
But we need these citations in order to attract the funding resources that allow us to do what we are doing

Therefore, if you are a happy ORCA user, please consider citing a few of the papers listed below in the main body of your paper

In addition to the list printed below, the program has created the file 2-bromopentane.bibtex that contains the list in bibtex format
You can import this file easily into all common literature databanks and citation aid programs


List of essential papers. We consider these as the minimum necessary citations

  1. Neese, F.
     Software update: the ORCA program system, version 6.0
     WIRES Comput. Molec. Sci. 2025 15(1), e70019
     doi.org/10.1002/wcms.7019

List of papers to cite with high priority. The work reported in these papers was absolutely
necessary for this run to complete.
Our perspective: the developers of density functionals and basis sets usually get cited in chemistry papers
Good! But without the algorithms to do something with them, the functionals or basis sets would not do anything.
Hence, in our opinion, the algorithm design and method developments papers are equally worthy of getting cited

  1. Neese, F.
     An improvement of the resolution of the identity approximation for the formation of the Coulomb matrix
     J. Comp. Chem. 2003 24(14), 1740-1747
     doi.org/10.1002/jcc.10318
  2. Neese, F.
     The SHARK Integral Generation and Digestion System
     J. Comp. Chem. 2022 44(3), 381
     doi.org/10.1002/jcc.26942

List of suggested additional citations. These are papers that are important in the 'surrounding' of 
of this run, or papers that preceded the highly important papers. If you like your results we are grateful for a citation.

  1. Neese, F.
     The ORCA program system
     WIRES Comput. Molec. Sci. 2012 2(1), 73-78
     doi.org/10.1002/wcms.81
  2. Neese, F.
     Software update: the ORCA program system, version 4.0
     WIRES Comput. Molec. Sci. 2018 8(1), 1-6
     doi.org/10.1002/wcms.1327
  3. Neese, F.; Wennmohs, F.; Becker, U.; Riplinger, C.
     The ORCA quantum chemistry program package
     J. Chem. Phys. 2020 152(22), 224108
     doi.org/10.1063/5.0004608
  4. Neese, F.
     Software update: The ORCA program system—Version 5.0
     WIRES Comput. Molec. Sci. 2022 12(1), e1606
     doi.org/10.1002/wcms.1606

List of optional additional citations

  1. Neese, F.
     Approximate second-order SCF convergence for spin unrestricted wavefunctions
     Chem. Phys. Lett. 2000 325(1-3), 93-98
     doi.org/10.1016/s0009-2614(00)00662-x

Timings for individual modules:

Sum of individual times          ...      156.151 sec (=   2.603 min)
Startup calculation              ...        7.642 sec (=   0.127 min)   4.9 %
SCF iterations                   ...       94.156 sec (=   1.569 min)  60.3 %
Property calculations            ...        0.215 sec (=   0.004 min)   0.1 %
SCF Gradient evaluation          ...       54.081 sec (=   0.901 min)  34.6 %
Geometry relaxation              ...        0.057 sec (=   0.001 min)   0.0 %
                             ****ORCA TERMINATED NORMALLY****
TOTAL RUN TIME: 0 days 0 hours 2 minutes 38 seconds 33 msec
