
                                 *****************
                                 * O   R   C   A *
                                 *****************

                                            #,                                       
                                            ###                                      
                                            ####                                     
                                            #####                                    
                                            ######                                   
                                           ########,                                 
                                     ,,################,,,,,                         
                               ,,#################################,,                 
                          ,,##########################################,,             
                       ,#########################################, ''#####,          
                    ,#############################################,,   '####,        
                  ,##################################################,,,,####,       
                ,###########''''           ''''###############################       
              ,#####''   ,,,,##########,,,,          '''####'''          '####       
            ,##' ,,,,###########################,,,                        '##       
           ' ,,###''''                  '''############,,,                           
         ,,##''                                '''############,,,,        ,,,,,,###''
      ,#''                                            '''#######################'''  
     '                                                          ''''####''''         
             ,#######,   #######,   ,#######,      ##                                
            ,#'     '#,  ##    ##  ,#'     '#,    #''#        ,####,    ,#,          
            ##       ##  ##   ,#'  ##            #'  '#       #'       ,# #          
            ##       ##  #######   ##           ,######,      #####,      #          
            '#,     ,#'  ##    ##  '#,     ,#' ,#      #,     #,   #      #          
             '#######'   ##     ##  '#######'  #'      '#     '####' #    #          



                #########################################################
                #                        -***-                          #
                #          Department of theory and spectroscopy        #
                #                                                       #
                #                      Frank Neese                      #
                #                                                       #
                #     Directorship, Architecture, Infrastructure        #
                #                    SHARK, DRIVERS                     #
                #        Core code/Algorithms in most modules           #
                #                                                       #
                #        Max Planck Institute fuer Kohlenforschung      #
                #                Kaiser Wilhelm Platz 1                 #
                #                 D-45470 Muelheim/Ruhr                 #
                #                      Germany                          #
                #                                                       #
                #                  All rights reserved                  #
                #                        -***-                          #
                #########################################################


                         Program Version 6.1.0  -  RELEASE   -
                                (GIT: $679e74b7b5$)
                          ($2025-06-10 18:02:51 +0200$)


 With contributions from (in alphabetic order):
[Max-Planck-Institut fuer Kohlenforschung]                               
  Daniel Aravena         : Magnetic Suceptibility                        
  Michael Atanasov       : Ab Initio Ligand Field Theory (pilot matlab implementation)
  Alexander A. Auer      : GIAO ZORA, VPT2 properties, NMR spectrum      
  Ute Becker             : All parallelization in ORCA, NUMFREQ, NUMCALC 
  Giovanni Bistoni       : ED, misc. LED, open-shell LED, HFLD           
  Dmytro Bykov           : pre 5.0 version of the SCF Hessian            
  Marcos Casanova-Páez   : Triplet and SCS-CIS(D). UHF-(DLPNO)-IP/EA/STEOM-CCSD. UHF-CVS-IP/STEOM-CCSD   
  Vijay G. Chilkuri      : MRCI spin determinant printing, contributions to CSF-ICE 
  Pauline Colinet        : FMM embedding                                 
  Dipayan Datta          : RHF DLPNO-CCSD density                        
  Achintya Kumar Dutta   : EOM-CC, STEOM-CC                              
  Nicolas Foglia         : Exact transition moments, OPA infrastructure, MCD improvements    
  Dmitry Ganyushin       : Spin-Orbit,Spin-Spin,Magnetic field MRCI      
  Miquel Garcia-Rates    : C-PCM and meta-GGA Hessian, CCSD/C-PCM, Gaussian charge scheme 
  Tiago L. C. Gouveia    : GS-ROHF, GS-ROCIS                             
  Yang Guo               : DLPNO-NEVPT2, F12-NEVPT2, CIM, IAO-localization        
  Andreas Hansen         : Spin unrestricted coupled pair/coupled cluster methods 
  Ingolf Harden          : AUTO-CI MPn and infrastructure                
  Benjamin Helmich-Paris : MC-RPA, TRAH-(SCF,CASSCF), AVAS, COSX integrals, SCF dyn. polar., MC-PDFT, srDFT 
  Lee Huntington         : MR-EOM, pCC                                   
  Robert Izsak           : Overlap fitted RIJCOSX, COSX-SCS-MP3, EOM     
  Riya Kayal             : Wick's Theorem for AUTO-CI, AUTO-CI UHF-CCSDT 
  Emily Kempfer          : AUTO-CI RHF CISDT and CCSDT, approximate NEVPT4
  Christian Kollmar      : KDIIS, OOCD, Brueckner-CCSD(T), CCSD density, CASPT2, CASPT2-K, improved NEVPT2 
  Axel Koslowski         : Symmetry handling                             
  Simone Kossmann        : meta-GGA functionals, TD-DFT gradient, OOMP2, (MP2 Hessian; deprecated post 5.0) 
  Lucas Lang             : DCDCAS, Hyperfine gauge corrections, ICE-SOC+SSC
  Marvin Lechner         : AUTO-CI (C++ implementation), FIC-MRCC        
  Spencer Leger          : CASSCF response                               
  Dagmar Lenk            : GEPOL surface, SMD, ORCA-2-JSON               
  Dimitrios Liakos       : Extrapolation schemes; Compound Job, Property file
  Dimitrios Manganas     : Further ROCIS development; embedding schemes. LFT, Crystal Embedding 
  Dimitrios Pantazis     : SARC Basis sets                               
  Anastasios Papadopoulos: AUTO-CI, single reference methods and gradients 
  Taras Petrenko         : pre 6.0 DFT Hessian and TD-DFT gradient,  ECA, NRVS 
  Petra Pikulova         : Analytic Raman intensities                    
  Peter Pinski           : DLPNO-MP2, DLPNO-MP2 Gradient                 
  Shashank Vittal Rao    : ES-AILFT, MagRelax                            
  Christoph Reimann      : Effective Core Potentials                     
  Marius Retegan         : Local ZFS, SOC                                
  Christoph Riplinger    : Optimizer, TS searches, QM/MM, DLPNO-CCSD(T), (RO)-DLPNO pert. Triples 
  Michael Roemelt        : Original ROCIS implementation, recursive CI coupling coefficients
  Masaaki Saitow         : Open-shell DLPNO-CCSD energy and density      
  Barbara Sandhoefer     : DKH picture change effects                    
  Yorick L. A. Schmerwitz: GMF and freeze-and-release deltaSCF, NEB S-IDPP initial path                    
  Kantharuban Sivalingam : CASSCF convergence/infrastructure, NEVPT2, NEVPT3, NEVPT4(SD), FIC-MRCI and CEPA variants
  Bernardo de Souza      : ESD, SOC TD-DFT                               
  Georgi L. Stoychev     : AutoAux, RI-MP2 NMR, DLPNO-MP2 response, X2C  
  Van Anh Tran           : RI-MP2 g-tensors                              
  Willem Van den Heuvel  : Paramagnetic NMR                              
  Zikuan Wang            : NOTCH, Electric field optimization            
  Frank Wennmohs         : Technical directorship and infrastructure     
  Hang Xu                : AUTO-CI-Response properties                   
                                                                         
[FACCTs GmbH]                                                            
  Markus Bursch, Nicolas Foglia, Miquel Garcia-Rates, Ingolf Harden, Hagen Neugebauer, Anastasios Papadopoulos, 
  Christoph Riplinger, Bernardo de Souza, Georgi L. Stoychev                                                    
                                                                 
  APM, various basis sets, CI-OPT, improved COSX, DLPNO-Multilevel,           
  DOCKER, DRACO, updates on ESD, Fragmentator, GOAT, IRC, LR-CPCM, L-BFGS, MBIS, meta-GGA TD-DFT gradient, ML-optimized integration grids, 
  MM, NACMEs, nearIR, NEB, NEB-TS, NL-DFT gradient (VV10), 2- and 3-layer-ONIOM, interface openCOSMO-RS, QMMM,   
  Crystal-QMMM, RESP, rigid body optimization, SF, symmetry and pop. for TD-DFT, various functionals, SOLVATOR                                   
                                                                         
[Other institutions]                                                     
  V. Asgeirsson          : NEB                                           
  Christoph Bannwarth    : sTDA-DFT, sTD-DFT, PBEh-3c, B97-3c, D3        
  Giovanni Bistoni       : ETS/NOCV, ADLD/ADEX, COVALED                  
  Martin Brehm           : Molecular dynamics                            
  Ronald Cardenas        : ETS/NOCV                                      
  Martina Colucci        : COVALED                                       
  Sebastian Ehlert       : rSCAN, r2SCAN, r2SCAN-3c, D4, dhf basis sets  
  Marvin Friede          : D4 for Fr, Ra, Ac-Lr                          
  Lars Goerigk           : TD-DFT with DH, B97 family of functionals     
  Stefan Grimme          : VdW corrections, initial TS optimization, DFT functionals, gCP, sTDA/sTD-DF 
  Waldemar Hujo          : DFT-NL                                        
  H. Jonsson             : NEB                                           
  Holger Kruse           : gCP                                           
  Marcel Mueller         : wB97X-3c, vDZP basis set                      
  Hagen Neugebauer       : wr2SCAN, Native XTB                           
  Gianluca Regni         : ADLD/ADEX                                     
  Tobias Risthaus        : pre 6.0 range-separated hybrid DFT and stability analysis
  Lukas Wittmann         : regularized MP2, r2SCAN double-hybrids, wr2SCAN        
                                                                         
We gratefully acknowledge several colleagues who have allowed us to      
interface, adapt or use parts of their codes:                            
  Ed Valeev, F. Pavosevic, A. Kumar             : LibInt (2-el integral package), F12 methods 
  Garnet Chan, S. Sharma, J. Yang, R. Olivares  : DMRG                   
  Ulf Ekstrom                                   : XCFun DFT Library      
  Mihaly Kallay                                 : mrcc  (arbitrary order and MRCC methods)
  Frank Weinhold                                : gennbo (NPA and NBO analysis)           
  Simon Mueller                                 : openCOSMO-RS                            
  Christopher J. Cramer and Donald G. Truhlar   : smd solvation model                     
  S Lehtola, MJT Oliveira, MAL Marques          : LibXC Library                           
  Liviu Ungur et al                             : ANISO software                          


 Your calculation uses the libint2 library for the computation of 2-el integrals
 For citations please refer to: http://libint.valeyev.net

 Your ORCA version has been built with support for libXC version: 7.0.0
 For citations please refer to: https://libxc.gitlab.io

 This ORCA versions uses:
   CBLAS   interface :  Fast vector & matrix operations
   LAPACKE interface :  Fast linear algebra routines
   SCALAPACK package :  Parallel linear algebra routines
   Shared memory     :  Shared parallel matrices


  ***********************************
  * Starting time: Fri Nov 28 18:09:47 2025
  * Host name:     Grants-Air.localdomain
  * Process ID:    14827
  * Working dir.:  /Users/grantkruttschnitt/Documents/orcaProjects
  ***********************************

NOTE: MaxCore=16384 MB was set to SCF,MP2,MDCI,CIPSI,MRCI,RASCI and CIS
      => If you want to overwrite this, your respective input block should be placed after the MaxCore statement
Warning: RI is on but no J-basis has been assigned. Assigning Def2/J (nothing to worry about!)
================================================================================

----- Orbital basis set information -----
Your calculation utilizes the basis: def2-TZVP
   F. Weigend and R. Ahlrichs, Phys. Chem. Chem. Phys. 7, 3297 (2005).

----- AuxJ basis set information -----
Your calculation utilizes the auxiliary basis: def2/J
   H-Rn: F. Weigend, Phys. Chem. Chem. Phys. 8, 1057 (2006).
   Fr-Lr: K. Eichkorn, F. Weigend, O. Treutler, R. Ahlrichs; Theor. Chem. Acc. 97, 119 (1997).

================================================================================
                                        WARNINGS
                       Please study these warnings very carefully!
================================================================================


WARNING: your system is open-shell and RHF/RKS was chosen
  ===> : WILL SWITCH to UHF/UKS


WARNING: Geometry Optimization
  ===> : Switching off AutoStart
         For restart on a previous wavefunction, please use MOREAD

================================================================================
                                       INPUT FILE
================================================================================
NAME = 2-pentanol.inp
|  1> # avogadro generated ORCA file
|  2> # 2-pentanol
|  3> # 
|  4> ! Opt revPBE def2-TZVP 
|  5> 
|  6> %maxcore 16384
|  7> 
|  8> %output
|  9>    print[p_mos] 1
| 10>    print[p_basis] 2
| 11> end
| 12> 
| 13> * xyz 0 2
| 14>    C     -1.854957   -0.478654   -0.001108
| 15>    C     -0.928629    0.686236   -0.000102
| 16>    C      0.465832    0.503283   -0.000087
| 17>    C      1.975819    0.288186   -0.000103
| 18>    C      3.496119    0.113083   -0.000105
| 19>    O     -1.497277    1.929109    0.000573
| 20>    H     -0.826335    2.627968    0.001095
| 21> *
| 22> 
| 23> 
| 24> 
| 25>                          ****END OF INPUT****
================================================================================

                       *****************************
                       * Geometry Optimization Run *
                       *****************************

Geometry optimization settings:
Update method            Update   .... BFGS
Choice of coordinates    CoordSys .... (2022) Redundant Internals
Initial Hessian          InHess   .... Almloef's Model
Max. no of cycles        MaxIter  .... 50

Convergence Tolerances:
Energy Change            TolE     ....  5.0000e-06 Eh
Max. Gradient            TolMAXG  ....  3.0000e-04 Eh/bohr
RMS Gradient             TolRMSG  ....  1.0000e-04 Eh/bohr
Max. Displacement        TolMAXD  ....  4.0000e-03 bohr
RMS Displacement         TolRMSD  ....  2.0000e-03 bohr
Strict Convergence                .... False

------------------------------------------------------------------------------
                        ORCA OPTIMIZATION COORDINATE SETUP
------------------------------------------------------------------------------

The optimization will be done in redundant internal coordinates (2022)
Making redundant internal coordinates   ...  (2022 redundants) done
Evaluating the initial hessian          ...  (Almloef) done
Evaluating the coordinates              ...  done
Calculating the B-matrix                .... done
Calculating the G-matrix                .... done
The number of degrees of freedom        ....   16

    -----------------------------------------------------------------
                    Redundant Internal Coordinates


    -----------------------------------------------------------------
         Definition                    Initial Value    Approx d2E/dq
    -----------------------------------------------------------------
      1. B(C   1,C   0)                  1.4883         0.435410   
      2. B(C   2,C   1)                  1.4064         0.588241   
      3. B(C   3,C   2)                  1.5252         0.380178   
      4. B(C   4,C   3)                  1.5304         0.373094   
      5. B(O   5,C   1)                  1.3668         0.609421   
      6. B(H   6,O   5)                  0.9688         0.503422   
      7. A(C   0,C   1,O   5)          116.9227         0.403688   
      8. A(C   0,C   1,C   2)          121.0174         0.403769   
      9. A(C   2,C   1,O   5)          122.0599         0.425863   
     10. L(C   1,C   2,C   3,C   0, 2) 179.9986         0.394252   
     11. L(C   1,C   2,C   3,C   0, 1) 179.3673         0.394252   
     12. L(C   2,C   3,C   4, 2)       180.0005         0.364361   
     13. L(C   2,C   3,C   4, 1)       178.4630         0.364361   
     14. A(C   1,O   5,H   6)          111.5822         0.366983   
     15. D(H   6,O   5,C   1,C   2)     -0.0036         0.027182   
     16. D(H   6,O   5,C   1,C   0)   -179.9929         0.027182   
    -----------------------------------------------------------------

Number of atoms                         .... 7
Number of degrees of freedom            .... 16


         *************************************************************
         *                GEOMETRY OPTIMIZATION CYCLE   1            *
         *************************************************************
---------------------------------
CARTESIAN COORDINATES (ANGSTROEM)
---------------------------------
  C     -1.854957   -0.478654   -0.001108
  C     -0.928629    0.686236   -0.000102
  C      0.465832    0.503283   -0.000087
  C      1.975819    0.288186   -0.000103
  C      3.496119    0.113083   -0.000105
  O     -1.497277    1.929109    0.000573
  H     -0.826335    2.627968    0.001095

----------------------------
CARTESIAN COORDINATES (A.U.)
----------------------------
  NO LB      ZA    FRAG     MASS         X           Y           Z
   0 C     6.0000    0    12.011   -3.505361   -0.904525   -0.002094
   1 C     6.0000    0    12.011   -1.754854    1.296798   -0.000193
   2 C     6.0000    0    12.011    0.880295    0.951067   -0.000164
   3 C     6.0000    0    12.011    3.733757    0.544593   -0.000195
   4 C     6.0000    0    12.011    6.606707    0.213696   -0.000198
   5 O     8.0000    0    15.999   -2.829443    3.645488    0.001083
   6 H     1.0000    0     1.008   -1.561547    4.966140    0.002069

--------------------------------
INTERNAL COORDINATES (ANGSTROEM)
--------------------------------
 C      0   0   0     0.000000000000     0.00000000     0.00000000
 C      1   0   0     1.488305508866     0.00000000     0.00000000
 C      2   1   0     1.406411490622   121.01743538     0.00000000
 C      3   2   1     1.525230297311   179.36728548     0.06494139
 C      4   3   2     1.530350662630   178.46296710   179.90984409
 O      2   1   3     1.366782461717   116.92269028   179.98949510
 H      6   2   1     0.968796852663   111.58218012   180.00706023

---------------------------
INTERNAL COORDINATES (A.U.)
---------------------------
 C      0   0   0     0.000000000000     0.00000000     0.00000000
 C      1   0   0     2.812489815362     0.00000000     0.00000000
 C      2   1   0     2.657732548876   121.01743538     0.00000000
 C      3   2   1     2.882267553076   179.36728548     0.06494139
 C      4   3   2     2.891943641236   178.46296710   179.90984409
 O      2   1   3     2.582844537292   116.92269028   179.98949510
 H      6   2   1     1.830760730937   111.58218012   180.00706023

---------------------
BASIS SET INFORMATION
---------------------
There are 3 groups of distinct atoms

 Group   1 Type C   : 11s6p2d1f contracted to 5s3p2d1f pattern {62111/411/11/1}
 Group   2 Type O   : 11s6p2d1f contracted to 5s3p2d1f pattern {62111/411/11/1}
 Group   3 Type H   : 5s1p contracted to 3s1p pattern {311/1}

Atom   0C    basis set group =>   1
Atom   1C    basis set group =>   1
Atom   2C    basis set group =>   1
Atom   3C    basis set group =>   1
Atom   4C    basis set group =>   1
Atom   5O    basis set group =>   2
Atom   6H    basis set group =>   3

-------------------------
BASIS SET IN INPUT FORMAT
-------------------------

 # Basis set for element : H 
 NewGTO H 
 S 3 
   1      34.0613410000      0.0254393072
   2       5.1235746000      0.1900859489
   3       1.1646626000      0.8524411301
 S 1 
   1       0.3272304100      1.0000000000
 S 1 
   1       0.1030724100      1.0000000000
 P 1 
   1       0.8000000000      1.0000000000
  end;

 # Basis set for element : C 
 NewGTO C 
 S 6 
   1   13575.3496820000      0.0006064549
   2    2035.2333680000      0.0046979088
   3     463.2256235900      0.0243324776
   4     131.2001959800      0.0973999683
   5      42.8530158910      0.3019558425
   6      15.5841857660      0.6623360915
 S 2 
   1       6.2067138508      0.6559530854
   2       2.5764896527      0.3758563329
 S 1 
   1       0.5769633942      1.0000000000
 S 1 
   1       0.2297283136      1.0000000000
 S 1 
   1       0.0951644400      1.0000000000
 P 4 
   1      34.6972322440      0.0113272200
   2       7.9582622826      0.0761696592
   3       2.3780826883      0.3019225220
   4       0.8143320818      0.7278502735
 P 1 
   1       0.2888754725      1.0000000000
 P 1 
   1       0.1005682367      1.0000000000
 D 1 
   1       1.0970000000      1.0000000000
 D 1 
   1       0.3180000000      1.0000000000
 F 1 
   1       0.7610000000      1.0000000000
  end;

 # Basis set for element : O 
 NewGTO O 
 S 6 
   1   27032.3826310000      0.0005722733
   2    4052.3871392000      0.0044353233
   3     922.3272271000      0.0230201076
   4     261.2407098900      0.0928224906
   5      85.3546413510      0.2937850002
   6      31.0350352450      0.6740160450
 S 2 
   1      12.2608607280      0.6383993702
   2       4.9987076005      0.3953458713
 S 1 
   1       1.1703108158      1.0000000000
 S 1 
   1       0.4647474099      1.0000000000
 S 1 
   1       0.1850453636      1.0000000000
 P 4 
   1      63.2749548010      0.0120183321
   2      14.6270493790      0.0830054217
   3       4.4501223456      0.3199174393
   4       1.5275799647      0.7071554292
 P 1 
   1       0.5293511794      1.0000000000
 P 1 
   1       0.1747842127      1.0000000000
 D 1 
   1       2.3140000000      1.0000000000
 D 1 
   1       0.6450000000      1.0000000000
 F 1 
   1       1.4280000000      1.0000000000
  end;

---------------------------------
AUXILIARY/J BASIS SET INFORMATION
---------------------------------
There are 3 groups of distinct atoms

 Group   1 Type C   : 12s5p4d2f1g contracted to 6s4p3d1f1g pattern {711111/2111/211/2/1}
 Group   2 Type O   : 12s5p4d2f1g contracted to 6s4p3d1f1g pattern {711111/2111/211/2/1}
 Group   3 Type H   : 5s2p1d contracted to 3s1p1d pattern {311/2/1}

Atom   0C    basis set group =>   1
Atom   1C    basis set group =>   1
Atom   2C    basis set group =>   1
Atom   3C    basis set group =>   1
Atom   4C    basis set group =>   1
Atom   5O    basis set group =>   2
Atom   6H    basis set group =>   3

-------------------------------------
AUXILIARY/J BASIS SET IN INPUT FORMAT
-------------------------------------

 # Auxiliary/J basis set for element : H 
 NewAuxJGTO H 
 S 3 
   1      15.6752927000      0.1007184237
   2       3.6063578000      0.3404257499
   3       1.2080016000      0.6491996172
 S 1 
   1       0.4726794000      1.0000000000
 S 1 
   1       0.2018100000      1.0000000000
 P 2 
   1       2.0281365000      0.5596620919
   2       0.5358730000      0.5596620919
 D 1 
   1       2.2165124000      1.0000000000
  end;

 # Auxiliary/J basis set for element : C 
 NewAuxJGTO C 
 S 7 
   1    1861.0916331000      0.0134602335
   2     642.9939764000      0.0299160374
   3     235.1105725000      0.1008649584
   4      90.7028894000      0.2370970548
   5      36.7794552000      0.3924037254
   6      15.6046273000      0.3195862154
   7       6.8907294000      0.0530104441
 S 1 
   1       3.1478850000     -1.0000000000
 S 1 
   1       1.4777287000      1.0000000000
 S 1 
   1       0.7076466000      1.0000000000
 S 1 
   1       0.3430122000      1.0000000000
 S 1 
   1       0.1669453000      1.0000000000
 P 2 
   1      13.5472892000     -0.6769313712
   2       5.4669419000     -0.3779500978
 P 1 
   1       2.1751721000      1.0000000000
 P 1 
   1       0.8582194000      1.0000000000
 P 1 
   1       0.3376720000      1.0000000000
 D 2 
   1       5.9287253000     -0.3533329857
   2       1.9809209000     -0.7456525731
 D 1 
   1       0.8055417000     -1.0000000000
 D 1 
   1       0.3531244000     -1.0000000000
 F 2 
   1       1.6755626000      0.6311076882
   2       0.5997536000      0.4968166032
 G 1 
   1       1.0024600000     -1.0000000000
  end;

 # Auxiliary/J basis set for element : O 
 NewAuxJGTO O 
 S 7 
   1    2876.8216605000      0.0168151159
   2    1004.7443032000      0.0340137548
   3     369.7579954000      0.1194951309
   4     142.9442404000      0.2664627624
   5      57.8366425000      0.4202764046
   6      24.3864983000      0.2765077335
   7      10.6622662000      0.0057008815
 S 1 
   1       4.8070437000     -1.0000000000
 S 1 
   1       2.2210770000      1.0000000000
 S 1 
   1       1.0447795000      1.0000000000
 S 1 
   1       0.4968425000      1.0000000000
 S 1 
   1       0.2371384000      1.0000000000
 P 2 
   1      64.2613382000     -0.2731534179
   2      16.3006076000     -0.8168011598
 P 1 
   1       4.3550542000      1.0000000000
 P 1 
   1       1.2019554000      1.0000000000
 P 1 
   1       0.3354196000      1.0000000000
 D 2 
   1       9.2146611000     -0.4661230638
   2       2.8435251000     -0.6600908911
 D 1 
   1       0.9955759000     -1.0000000000
 D 1 
   1       0.3649441000     -1.0000000000
 F 2 
   1       2.6420115000      0.5931563945
   2       0.7345613000      0.5931563945
 G 1 
   1       1.3931000000     -1.0000000000
  end;

------------------------------------------------------------------------------
                             ORCA STARTUP CALCULATIONS
                           -- RI-GTO INTEGRALS CHOSEN --
------------------------------------------------------------------------------
------------------------------------------------------------------------------
                   ___                                                        
                  /   \      - P O W E R E D   B Y -                         
                 /     \                                                     
                 |  |  |   _    _      __       _____    __    __             
                 |  |  |  | |  | |    /  \     |  _  \  |  |  /  |          
                  \  \/   | |  | |   /    \    | | | |  |  | /  /          
                 / \  \   | |__| |  /  /\  \   | |_| |  |  |/  /          
                |  |  |   |  __  | /  /__\  \  |    /   |      \           
                |  |  |   | |  | | |   __   |  |    \   |  |\   \          
                \     /   | |  | | |  |  |  |  | |\  \  |  | \   \       
                 \___/    |_|  |_| |__|  |__|  |_| \__\ |__|  \__/        
                                                                              
                      - O R C A' S   B I G   F R I E N D -                    
                                      &                                       
                       - I N T E G R A L  F E E D E R -                       
                                                                              
 v1 FN, 2020, v2 2021, v3 2022-2024                                           
------------------------------------------------------------------------------


----------------------
SHARK INTEGRAL PACKAGE
----------------------

Number of atoms                             ...      7
Number of basis functions                   ...    192
Number of shells                            ...     70
Maximum angular momentum                    ...      3
Integral batch strategy                     ... SHARK/LIBINT Hybrid
RI-J (if used) integral strategy            ... SPLIT-RIJ (Revised 2003 algorithm where possible)
Printlevel                                  ...      1
Contraction scheme used                     ... SEGMENTED contraction
Prescreening option                         ... SCHWARTZ
   Thresh                                   ... 2.500e-11
   Tcut                                     ... 2.500e-12
   Tpresel                                  ... 2.500e-12 
Coulomb Range Separation                    ... NOT USED
Exchange Range Separation                   ... NOT USED
Multipole approximations                    ... NOT USED
Finite Nucleus Model                        ... NOT USED
CABS basis                                  ... NOT available
Auxiliary Coulomb fitting basis             ... AVAILABLE
   # of basis functions in Aux-J            ...    305
   # of shells in Aux-J                     ...     95
   Maximum angular momentum in Aux-J        ...      4
Auxiliary J/K fitting basis                 ... NOT available
Auxiliary Correlation fitting basis         ... NOT available
Auxiliary 'external' fitting basis          ... NOT available

Checking pre-screening integrals            ... done (  0.0 sec) Dimension = 70
   => SHARK Basis and OBASIS are compatible. Storing Pre-screening
Shell pair information
Shell pair cut-off parameter TPreSel        ...   2.5e-12
Total number of shell pairs                 ...      2485
Shell pairs after pre-screening             ...      2268
Total number of primitive shell pairs       ...      8136
Primitive shell pairs kept                  ...      5672
          la=0 lb=0:    483 shell pairs
          la=1 lb=0:    587 shell pairs
          la=1 lb=1:    186 shell pairs
          la=2 lb=0:    354 shell pairs
          la=2 lb=1:    217 shell pairs
          la=2 lb=2:     73 shell pairs
          la=3 lb=0:    173 shell pairs
          la=3 lb=1:    109 shell pairs
          la=3 lb=2:     67 shell pairs
          la=3 lb=3:     19 shell pairs

Checking whether 4 symmetric matrices of dimension 192 fit in memory
:Max Core in MB      =  16384.00
 MB in use           =      5.66
 MB left             =  16378.34
 MB needed           =      0.57
 Data fit in memory  = YES
Calculating RI/J V-Matrix + Cholesky decomp.... done (  0.0 sec)
Calculating Nuclear repulsion               ... done (  0.0 sec) ENN=    144.897175751709 Eh

Diagonalization of the overlap matrix:
Smallest eigenvalue                        ... 3.951e-05
Time for diagonalization                   ...    0.008 sec
Threshold for overlap eigenvalues          ... 1.000e-07
Number of eigenvalues below threshold      ... 0
Time for construction of square roots      ...    0.002 sec
Total time needed                          ...    0.010 sec

-------------------
DFT GRID GENERATION
-------------------

General Integration Accuracy     IntAcc      ... 4.388
Radial Grid Type                 RadialGrid  ... OptM3 with GC (2021)
Angular Grid (max. ang.)         AngularGrid ... 4 (Lebedev-302)
Angular grid pruning method      GridPruning ... 4 (adaptive)
Weight generation scheme         WeightScheme... mBecke (2022)
Basis function cutoff            BFCut       ... 1.0000e-11
Integration weight cutoff        WCut        ... 1.0000e-14
Partially contracted basis set               ... off
Rotationally invariant grid construction     ... off
Angular grids for H and He will be reduced by one unit

Total number of grid points                  ...    39841
Total number of batches                      ...      627
Average number of points per batch           ...       63
Average number of grid points per atom       ...     5692
Grids setup in   0.3 sec
Initializing property integral containers    ... done (  0.0 sec)

SHARK setup successfully completed in   0.5 seconds

Maximum memory used throughout the entire STARTUP-calculation: 22.6 MB
-------------------------------------------------------------------------------
                                 ORCA GUESS
                   Start orbitals & Density for SCF / CASSCF
-------------------------------------------------------------------------------

------------
SCF SETTINGS
------------
Hamiltonian:
 Density Functional     Method          .... DFT(GTOs)
 Exchange Functional    Exchange        .... PBE
   PBE kappa parameter   XKappa         ....  1.245000
   PBE mue parameter    XMuePBE         ....  0.219520
 Correlation Functional Correlation     .... PBE
   PBE beta parameter  CBetaPBE         ....  0.066725
 LDA part of GGA corr.  LDAOpt          .... PW91-LDA
 Gradients option       PostSCFGGA      .... off
   NL short-range parameter             ....  3.700000
 RI-approximation to the Coulomb term is turned on
   Number of AuxJ basis functions       .... 305


General Settings:
 Integral files         IntName         .... 2-pentanol
 Hartree-Fock type      HFTyp           .... UHF
 Total Charge           Charge          ....    0
 Multiplicity           Mult            ....    2
 Number of Electrons    NEL             ....   39
 Basis Dimension        Dim             ....  192
 Nuclear Repulsion      ENuc            ....    144.8971757517 Eh

Convergence Acceleration:
 AO-DIIS                CNVDIIS         .... on
   Start iteration      DIISMaxIt       ....    12
   Startup error        DIISStart       ....  0.200000
   # of expansion vecs  DIISMaxEq       ....     5
   Bias factor          DIISBfac        ....   1.050
   Max. coefficient     DIISMaxC        ....  10.000
 MO-DIIS                CNVKDIIS        .... off
 Trust-Rad. Augm. Hess. CNVTRAH         .... auto
   Auto Start mean grad. ratio tolernc. ....  1.125000
   Auto Start start iteration           ....    50
   Auto Start num. interpolation iter.  ....    10
   Max. Number of Micro iterations      ....    24
   Max. Number of Macro iterations      .... Maxiter - #DIIS iter
   Number of Davidson start vectors     ....     2
   Converg. threshold    (grad. norm)   ....   1.000e-05
   Grad. Scal. Fac. for Micro threshold ....   0.100
   Minimum threshold for Micro iter.    ....   1.000e-02
   NR start threshold (gradient norm)   ....   1.000e-04
   Initial trust radius                 ....   0.400
   Minimum AH scaling param. (alpha)    ....   1.000
   Maximum AH scaling param. (alpha)    .... 1000.000
   Quad. conv. algorithm                .... NR
   White noise on init. David. guess    .... on
   Maximum white noise                  ....   0.010
   Pseudo random numbers                .... off
   Inactive MOs                         .... canonical
   Orbital update algorithm             .... Taylor
   Preconditioner                       .... Diag
   Full preconditioner red. dimension   ....   250
 SOSCF                 CNVSOSCF           .... on
   Start iteration     SOSCFMaxIt         ....   150
   Startup grad/error  SOSCFStart         ....  0.003300
   Hessian update      SOSCFHessUp        .... L-BFGS
   Autom. constraints  SOSCFAutoConstrain .... off
 Level Shifting         CNVShift        .... on
   Level shift para.    LevelShift      ....    0.2500
   Turn off err/grad.   ShiftErr        ....    0.0010
 Zerner damping         CNVZerner       .... off
 Static damping         CNVDamp         .... on
   Fraction old density DampFac         ....    0.7000
   Max. Damping (<1)    DampMax         ....    0.9800
   Min. Damping (>=0)   DampMin         ....    0.0000
   Turn off err/grad.   DampErr         ....    0.1000

SCF Procedure:
 Maximum # iterations   MaxIter         ....   125
 SCF integral mode      SCFMode         .... Direct
   Integral package                     .... SHARK and LIBINT hybrid scheme
 Reset frequency        DirectResetFreq ....    20
 Integral Threshold     Thresh          ....  2.500e-11 Eh
 Primitive CutOff       TCut            ....  2.500e-12 Eh

Convergence Tolerance:
 Convergence Check Mode ConvCheckMode   .... Total+1el-Energy
 Convergence forced     ConvForced      .... 0
 Energy Change          TolE            ....  1.000e-08 Eh
 1-El. energy change                    ....  1.000e-05 Eh
 Orbital Gradient       TolG            ....  1.000e-05
 Orbital Rotation angle TolX            ....  1.000e-05
 DIIS Error             TolErr          ....  5.000e-07

------------------------------
INITIAL GUESS: MODEL POTENTIAL
------------------------------
Loading Hartree-Fock densities                     ... done
Calculating cut-offs                               ... done
Initializing the effective Hamiltonian             ... done
Setting up the integral package (SHARK)            ... done
Starting the Coulomb interaction                   ... done (   0.1 sec)
Making the grid                                    ... done (   0.1 sec)
Mapping shells                                     ... done
Starting the XC term evaluation                    ... done (   0.1 sec)
  promolecular density results
     # of electrons  =     38.999829031
     EX              =    -33.842025234
     EC              =     -1.222944824
     EX+EC           =    -35.064970057
Transforming the Hamiltonian                       ... done (   0.0 sec)
Diagonalizing the Hamiltonian                      ... done (   0.0 sec)
Back transforming the eigenvectors                 ... done (   0.0 sec)
Now organizing SCF variables                       ... done
                      ------------------
                      INITIAL GUESS DONE (   0.3 sec)
                      ------------------
             **** ENERGY FILE WAS UPDATED (2-pentanol.en.tmp) ****
Finished Guess after   0.3 sec
Maximum memory used throughout the entire GUESS-calculation: 14.7 MB

-------------------------------------------------------------------------------------------
                                      ORCA LEAN-SCF
                              memory conserving SCF solver
-------------------------------------------------------------------------------------------

----------------------------------------D-I-I-S--------------------------------------------
Iteration    Energy (Eh)           Delta-E    RMSDP     MaxDP     DIISErr   Damp  Time(sec)
-------------------------------------------------------------------------------------------
               ***  Starting incremental Fock matrix formation  ***
    1    -265.8583573244451372     0.00e+00  8.92e-04  2.38e-02  1.12e-01  0.700   0.9
Warning: op=0 Small HOMO/LUMO gap (   0.036) - skipping pre-diagonalization
         Will do a full diagonalization
    2    -265.9002449883622603    -4.19e-02  5.64e-04  1.31e-02  3.30e-02  0.700   0.8
                               ***Turning on AO-DIIS***
    3    -265.9091928997370360    -8.95e-03  3.18e-04  1.37e-02  1.57e-02  0.700   0.8
    4    -265.9163227019049600    -7.13e-03  6.87e-04  3.07e-02  1.09e-02  0.000   1.1
    5    -265.9353944667433325    -1.91e-02  1.45e-04  6.93e-03  5.54e-03  0.000   1.0
                              *** Initializing SOSCF ***
---------------------------------------S-O-S-C-F--------------------------------------
Iteration    Energy (Eh)           Delta-E    RMSDP     MaxDP     MaxGrad    Time(sec)
--------------------------------------------------------------------------------------
    6    -265.9358210550242347    -4.27e-04  6.89e-05  2.21e-03  2.62e-03     1.7
               *** Restarting incremental Fock matrix formation ***
    7    -265.9360274904864809    -2.06e-04  8.79e-05  2.30e-03  1.94e-03     2.4
    8    -265.9361309414657626    -1.03e-04  2.99e-04  7.91e-03  2.99e-03     3.3
    9    -265.9359953093083959     1.36e-04  1.68e-04  5.41e-03  5.21e-03     0.9
   10    -265.9362175109503141    -2.22e-04  1.68e-04  4.59e-03  2.38e-03     0.8
   11    -265.9359130949618475     3.04e-04  1.37e-04  3.99e-03  5.41e-03     0.8
   12    -265.9362893167731272    -3.76e-04  5.02e-05  1.23e-03  6.87e-04     0.8
   13    -265.9362658871442591     2.34e-05  3.19e-05  7.68e-04  1.18e-03     0.8
   14    -265.9363056758473931    -3.98e-05  1.50e-05  4.37e-04  2.97e-04     0.8
   15    -265.9363062582391422    -5.82e-07  1.60e-05  5.32e-04  4.13e-04     0.7
   16    -265.9363128572407504    -6.60e-06  4.24e-05  1.51e-03  2.20e-04     0.7
   17    -265.9363178547213238    -5.00e-06  3.68e-05  1.30e-03  4.21e-04     0.8
   18    -265.9363215523653707    -3.70e-06  5.06e-06  1.42e-04  2.77e-04     0.8
   19    -265.9363228588066477    -1.31e-06  5.44e-06  1.88e-04  7.89e-05     1.0
   20    -265.9363231132761030    -2.54e-07  2.96e-06  8.00e-05  4.17e-05     0.7
   21    -265.9363231681159050    -5.48e-08  7.44e-07  1.84e-05  2.42e-05     0.7
   22    -265.9363231796398850    -1.15e-08  4.49e-07  1.18e-05  5.40e-06     0.7
   23    -265.9363231803339431    -6.94e-10  1.59e-07  3.74e-06  2.47e-06     0.7
                 **** Energy Check signals convergence ****

               *****************************************************
               *                     SUCCESS                       *
               *           SCF CONVERGED AFTER  23 CYCLES          *
               *****************************************************

             **** ENERGY FILE WAS UPDATED (2-pentanol.en.tmp) ****

----------------
TOTAL SCF ENERGY
----------------

Total Energy       :       -265.93632318142943 Eh           -7236.49525 eV

Components:
Nuclear Repulsion  :        144.89717575170894 Eh            3942.85260 eV
Electronic Energy  :       -410.83349893313834 Eh          -11179.34785 eV
One Electron Energy:       -645.01911921691635 Eh          -17551.86255 eV
Two Electron Energy:        234.18562028377804 Eh            6372.51470 eV

Virial components:
Potential Energy   :       -529.73317150509854 Eh          -14414.77243 eV
Kinetic Energy     :        263.79684832366911 Eh            7178.27718 eV
Virial Ratio       :          2.00811031242926

DFT components:
N(Alpha)           :       20.000004009797 electrons
N(Beta)            :       19.000001154499 electrons
N(Total)           :       39.000005164296 electrons
E(X)               :      -34.139568848093 Eh       
E(C)               :       -1.231552237196 Eh       
E(XC)              :      -35.371121085289 Eh       

---------------
SCF CONVERGENCE
---------------

  Last Energy change         ...    6.9406e-10  Tolerance :   1.0000e-08
  Last MAX-Density change    ...    3.7448e-06  Tolerance :   1.0000e-07
  Last RMS-Density change    ...    1.5882e-07  Tolerance :   5.0000e-09
  Last DIIS Error            ...    2.6175e-03  Tolerance :   5.0000e-07
  Last Orbital Gradient      ...    2.4669e-06  Tolerance :   1.0000e-05
  Last Orbital Rotation      ...    8.1499e-06  Tolerance :   1.0000e-05


----------------------
UHF SPIN CONTAMINATION
----------------------

Warning: in a DFT calculation there is little theoretical justification to 
         calculate <S**2> as in Hartree-Fock theory. We will do it anyways
         but you should keep in mind that the values have only limited relevance

Expectation value of <S**2>     :     0.784229
Ideal value S*(S+1) for S=0.5   :     0.750000
Deviation                       :     0.034229

----------------
ORBITAL ENERGIES
----------------
                 SPIN UP ORBITALS
  NO   OCC          E(Eh)            E(eV) 
   0   1.0000     -18.842176      -512.7217 
   1   1.0000     -10.041705      -273.2487 
   2   1.0000     -10.035895      -273.0906 
   3   1.0000     -10.025971      -272.8205 
   4   1.0000     -10.019979      -272.6575 
   5   1.0000     -10.009150      -272.3628 
   6   1.0000      -1.024491       -27.8778 
   7   1.0000      -0.760394       -20.6914 
   8   1.0000      -0.688157       -18.7257 
   9   1.0000      -0.630111       -17.1462 
  10   1.0000      -0.558175       -15.1887 
  11   1.0000      -0.545998       -14.8574 
  12   1.0000      -0.404812       -11.0155 
  13   1.0000      -0.398151       -10.8342 
  14   1.0000      -0.318378        -8.6635 
  15   1.0000      -0.306880        -8.3506 
  16   1.0000      -0.303990        -8.2720 
  17   1.0000      -0.293474        -7.9858 
  18   1.0000      -0.252106        -6.8602 
  19   1.0000      -0.236021        -6.4225 
  20   0.0000      -0.195436        -5.3181 
  21   0.0000      -0.191657        -5.2152 
  22   0.0000      -0.089706        -2.4410 
  23   0.0000      -0.062919        -1.7121 
  24   0.0000      -0.024355        -0.6627 
  25   0.0000      -0.004803        -0.1307 
  26   0.0000       0.007266         0.1977 
  27   0.0000       0.079293         2.1577 
  28   0.0000       0.098974         2.6932 
  29   0.0000       0.150898         4.1061 
  30   0.0000       0.165804         4.5118 

                 SPIN DOWN ORBITALS
  NO   OCC          E(Eh)            E(eV) 
   0   1.0000     -18.840834      -512.6852 
   1   1.0000     -10.040441      -273.2143 
   2   1.0000     -10.036597      -273.1097 
   3   1.0000     -10.022379      -272.7228 
   4   1.0000     -10.011776      -272.4343 
   5   1.0000     -10.009329      -272.3677 
   6   1.0000      -1.021168       -27.7874 
   7   1.0000      -0.754671       -20.5356 
   8   1.0000      -0.681511       -18.5449 
   9   1.0000      -0.618777       -16.8378 
  10   1.0000      -0.547902       -14.9092 
  11   1.0000      -0.540219       -14.7001 
  12   1.0000      -0.403837       -10.9890 
  13   1.0000      -0.394559       -10.7365 
  14   1.0000      -0.308988        -8.4080 
  15   1.0000      -0.304080        -8.2744 
  16   1.0000      -0.299515        -8.1502 
  17   1.0000      -0.280244        -7.6258 
  18   1.0000      -0.247232        -6.7275 
  19   0.0000      -0.198487        -5.4011 
  20   0.0000      -0.186367        -5.0713 
  21   0.0000      -0.147212        -4.0058 
  22   0.0000      -0.086815        -2.3624 
  23   0.0000      -0.047691        -1.2977 
  24   0.0000      -0.020958        -0.5703 
  25   0.0000      -0.000717        -0.0195 
  26   0.0000       0.007878         0.2144 
  27   0.0000       0.082948         2.2571 
  28   0.0000       0.102628         2.7926 
  29   0.0000       0.156080         4.2472 
*Only the first 10 virtual orbitals were printed.
------------------
MOLECULAR ORBITALS (UHF)
------------------
                      0         1         2         3         4         5   
                 -18.84218 -10.04171 -10.03590 -10.02597 -10.01998 -10.00915
                   1.00000   1.00000   1.00000   1.00000   1.00000   1.00000
                  --------  --------  --------  --------  --------  --------
  0C   1s        -0.000017  0.000066 -0.002305 -0.000280  0.467676 -0.000039
  0C   2s         0.000085  0.000051 -0.003078 -0.000318  0.607882 -0.000061
  0C   3s        -0.000570  0.001115 -0.000382 -0.000361  0.037839 -0.000178
  0C   4s        -0.000061 -0.003753 -0.004279  0.000897 -0.024344  0.001618
  0C   5s         0.001355 -0.000631  0.013673 -0.000237  0.007286 -0.004507
  0C   1pz       -0.000000  0.000000 -0.000000 -0.000000  0.000002  0.000000
  0C   1px       -0.000127  0.000124 -0.000188 -0.000062  0.002089 -0.000017
  0C   1py       -0.000115  0.000350 -0.000053 -0.000015  0.002307  0.000070
  0C   2pz       -0.000001 -0.000002 -0.000002  0.000000 -0.000002  0.000000
  0C   2px        0.000229 -0.001429 -0.000503  0.000184 -0.001807  0.000887
  0C   2py       -0.000887 -0.002332 -0.002369  0.000085 -0.001836  0.000295
  0C   3pz        0.000000 -0.000000  0.000004  0.000000  0.000000 -0.000001
  0C   3px        0.001110 -0.000436  0.002992 -0.000526  0.000878 -0.000566
  0C   3py       -0.000365 -0.000254  0.004064  0.000477  0.000336 -0.001601
  0C   1dz2       0.000034  0.000012 -0.000117  0.000020 -0.000479 -0.000089
  0C   1dxz      -0.000000  0.000000  0.000000  0.000000  0.000000  0.000000
  0C   1dyz      -0.000000  0.000000  0.000000 -0.000000  0.000001  0.000000
  0C   1dx2y2    -0.000007 -0.000108 -0.000054  0.000001 -0.000273 -0.000013
  0C   1dxy      -0.000035  0.000031  0.000266  0.000028  0.000215  0.000008
  0C   2dz2      -0.000090  0.000783 -0.000216 -0.000085  0.000808  0.000081
  0C   2dxz       0.000000 -0.000001  0.000000 -0.000000 -0.000000  0.000000
  0C   2dyz      -0.000000 -0.000001 -0.000000  0.000000 -0.000001 -0.000000
  0C   2dx2y2     0.000545  0.000203  0.000675 -0.000096  0.000185  0.000184
  0C   2dxy      -0.000198 -0.000607  0.000142 -0.000207 -0.000436  0.000371
  0C   1f0       -0.000000  0.000000 -0.000001 -0.000000  0.000000 -0.000000
  0C   1f+1      -0.000061  0.000069 -0.000327  0.000017  0.000088  0.000005
  0C   1f-1      -0.000110  0.000242 -0.000438 -0.000026  0.000162  0.000000
  0C   1f+2      -0.000000  0.000000 -0.000000 -0.000000  0.000000  0.000000
  0C   1f-2      -0.000000  0.000000  0.000001 -0.000000 -0.000000  0.000000
  0C   1f+3      -0.000154  0.000159  0.000630 -0.000016  0.000128  0.000022
  0C   1f-3       0.000049  0.000062 -0.000454  0.000058 -0.000005 -0.000053
  1C   1s        -0.000046  0.014115 -0.467897  0.000381 -0.002348 -0.000164
  1C   2s         0.000228  0.018359 -0.606352  0.000627 -0.002998 -0.000415
  1C   3s         0.000879 -0.005178 -0.040682 -0.001263 -0.001829  0.001536
  1C   4s        -0.003722  0.083383  0.021658  0.004760  0.016951  0.012692
  1C   5s        -0.013117  0.011302  0.022248  0.040749 -0.026359 -0.005984
  1C   1pz        0.000000  0.000000 -0.000000 -0.000000 -0.000000 -0.000000
  1C   1px        0.000022 -0.000027 -0.000668 -0.000214 -0.000427  0.000467
  1C   1py        0.000010  0.000104 -0.000631  0.000013 -0.000312 -0.000091
  1C   2pz       -0.000003 -0.000001 -0.000003  0.000000 -0.000000  0.000001
  1C   2px        0.003210  0.048313 -0.002996  0.000835  0.008747  0.008517
  1C   2py       -0.006357 -0.008137 -0.004210 -0.000105 -0.001276 -0.000669
  1C   3pz        0.000003  0.000001  0.000007  0.000000 -0.000003 -0.000002
  1C   3px       -0.007585  0.002500  0.017272  0.013866 -0.010048 -0.008439
  1C   3py        0.006993  0.000357  0.007560 -0.001742 -0.002936 -0.001136
  1C   1dz2       0.000361 -0.000154  0.001561 -0.000078  0.000056 -0.000139
  1C   1dxz       0.000000 -0.000000 -0.000000 -0.000000  0.000000 -0.000000
  1C   1dyz      -0.000000 -0.000000 -0.000002  0.000000 -0.000000  0.000000
  1C   1dx2y2     0.000216  0.000318 -0.000103  0.000046  0.000036  0.000097
  1C   1dxy       0.000319 -0.000098  0.000360 -0.000029  0.000153 -0.000036
  1C   2dz2       0.001366 -0.007868  0.000420  0.000291 -0.001965 -0.000282
  1C   2dxz       0.000002  0.000002  0.000003 -0.000000 -0.000002  0.000000
  1C   2dyz      -0.000003  0.000001 -0.000001 -0.000000 -0.000001 -0.000001
  1C   2dx2y2     0.003459  0.012121  0.001241 -0.000504  0.003394  0.002294
  1C   2dxy       0.003019 -0.001751  0.004463  0.000029 -0.004750 -0.000312
  1C   1f0        0.000001  0.000000  0.000001 -0.000000 -0.000001  0.000000
  1C   1f+1      -0.000258 -0.000036 -0.000086  0.000014 -0.000613 -0.000038
  1C   1f-1       0.000568  0.000112  0.000609 -0.000029 -0.000571  0.000034
  1C   1f+2       0.000001  0.000000  0.000001 -0.000000 -0.000000  0.000000
  1C   1f-2       0.000000  0.000000  0.000001 -0.000000  0.000001  0.000000
  1C   1f+3       0.000331  0.000213  0.001357 -0.000044  0.000387  0.000152
  1C   1f-3      -0.000114 -0.000011 -0.000479  0.000062 -0.000268 -0.000091
  2C   1s        -0.000019  0.467996  0.014177  0.000176  0.000016  0.000611
  2C   2s         0.000095  0.605835  0.018356  0.000353 -0.000044  0.000305
  2C   3s        -0.000500  0.069709 -0.002156 -0.000911  0.002793  0.013675
  2C   4s        -0.001606 -0.168518  0.010105  0.002459 -0.017119 -0.075398
  2C   5s        -0.000838  0.060376  0.020628  0.051453 -0.003390  0.054251
  2C   1pz       -0.000000 -0.000000  0.000000 -0.000000  0.000000  0.000000
  2C   1px        0.000184 -0.000048  0.000125 -0.000105 -0.000156  0.000427
  2C   1py       -0.000081 -0.000228  0.000028 -0.000009  0.000043 -0.000073
  2C   2pz       -0.000000  0.000001 -0.000001  0.000000  0.000001  0.000000
  2C   2px        0.001122  0.000938 -0.001083  0.000700  0.008906 -0.033998
  2C   2py       -0.000695  0.000355 -0.001075  0.000096  0.000016  0.004958
  2C   3pz       -0.000001 -0.000001 -0.000002 -0.000001  0.000002  0.000000
  2C   3px       -0.017267  0.043652  0.052843  0.069178 -0.026358  0.017181
  2C   3py        0.000223 -0.006769 -0.009868 -0.010150  0.006391 -0.002064
  2C   1dz2       0.000089 -0.001185 -0.000221  0.000113  0.000039  0.000044
  2C   1dxz       0.000000 -0.000000 -0.000000  0.000000 -0.000000 -0.000000
  2C   1dyz      -0.000000  0.000000  0.000000 -0.000000 -0.000000 -0.000000
  2C   1dx2y2     0.000029  0.001853  0.000291 -0.000174  0.000085 -0.000048
  2C   1dxy       0.000023 -0.000621 -0.000167  0.000066  0.000008 -0.000004
  2C   2dz2      -0.000115  0.024322 -0.002920 -0.000491  0.002457  0.010611
  2C   2dxz       0.000000  0.000000  0.000001 -0.000000 -0.000001  0.000001
  2C   2dyz       0.000001 -0.000000 -0.000001  0.000000  0.000000  0.000000
  2C   2dx2y2    -0.000747 -0.040428  0.005603  0.000747 -0.004804 -0.017777
  2C   2dxy       0.000521  0.011804 -0.000046 -0.000269 -0.000315  0.005518
  2C   1f0       -0.000000 -0.000000 -0.000000 -0.000000  0.000000  0.000000
  2C   1f+1       0.000202  0.000285  0.000662  0.000040 -0.000113  0.000334
  2C   1f-1      -0.000066 -0.000047 -0.000110 -0.000014  0.000057 -0.000048
  2C   1f+2      -0.000000  0.000000 -0.000000  0.000000  0.000000 -0.000000
  2C   1f-2      -0.000000  0.000000  0.000000 -0.000000 -0.000000 -0.000000
  2C   1f+3      -0.000104  0.000421  0.001050  0.000016 -0.000207  0.000325
  2C   1f-3       0.000041 -0.000252 -0.000353 -0.000056 -0.000100 -0.000157
  3C   1s        -0.000002  0.000474  0.000227  0.001522 -0.000039 -0.468250
  3C   2s         0.000011  0.001123  0.000099  0.001977 -0.000044 -0.606486
  3C   3s        -0.000031 -0.015226  0.002402 -0.000103 -0.000187 -0.061473
  3C   4s         0.000333  0.085092 -0.010784  0.005630  0.003032  0.121683
  3C   5s         0.012433 -0.054040 -0.045848 -0.064579  0.019875 -0.036697
  3C   1pz       -0.000000 -0.000000  0.000000  0.000000 -0.000000 -0.000000
  3C   1px        0.000040  0.000414 -0.000226  0.000207 -0.000007  0.001362
  3C   1py       -0.000024 -0.000044  0.000074 -0.000011 -0.000013 -0.000231
  3C   2pz        0.000000  0.000001 -0.000000 -0.000000  0.000000  0.000000
  3C   2px       -0.000995 -0.041268  0.003718  0.004715 -0.002461 -0.016819
  3C   2py        0.000153  0.005865 -0.000940 -0.000636  0.000650  0.002847
  3C   3pz        0.000000 -0.000000  0.000000 -0.000001 -0.000001 -0.000000
  3C   3px       -0.010000  0.042763  0.034439  0.066168 -0.017073  0.031381
  3C   3py        0.002154 -0.005640 -0.003838 -0.008852  0.001242 -0.004451
  3C   1dz2      -0.000049 -0.000056 -0.000107 -0.000073 -0.000045  0.000997
  3C   1dxz       0.000000  0.000000 -0.000000 -0.000000 -0.000000  0.000000
  3C   1dyz       0.000000 -0.000000 -0.000000 -0.000000  0.000000 -0.000000
  3C   1dx2y2     0.000025  0.000095  0.000177  0.000126  0.000026 -0.001633
  3C   1dxy       0.000043 -0.000035 -0.000059 -0.000054 -0.000023  0.000410
  3C   2dz2       0.000217 -0.012289  0.001452  0.000092 -0.000071 -0.017968
  3C   2dxz      -0.000000 -0.000001  0.000000  0.000000 -0.000000 -0.000000
  3C   2dyz      -0.000000  0.000000 -0.000000  0.000000 -0.000000  0.000000
  3C   2dx2y2    -0.000180  0.020496 -0.002320 -0.000152  0.000182  0.030106
  3C   2dxy      -0.000095 -0.005755  0.001050  0.000164 -0.000374 -0.007949
  3C   1f0        0.000000 -0.000000  0.000000  0.000000 -0.000000 -0.000000
  3C   1f+1       0.000040  0.000379 -0.000009  0.000444  0.000026  0.000453
  3C   1f-1      -0.000003 -0.000051  0.000014 -0.000045 -0.000015 -0.000079
  3C   1f+2       0.000000  0.000000 -0.000000 -0.000000  0.000000  0.000000
  3C   1f-2       0.000000  0.000000  0.000000  0.000000  0.000000 -0.000000
  3C   1f+3       0.000078  0.000476  0.000028  0.000553  0.000047  0.000513
  3C   1f-3      -0.000027 -0.000200  0.000042 -0.000173 -0.000054 -0.000294
  4C   1s        -0.000004 -0.000213  0.000400  0.467855  0.000272  0.001546
  4C   2s         0.000021 -0.000188  0.000408  0.607919  0.000401  0.001955
  4C   3s        -0.000360  0.000859  0.000686  0.038385 -0.000535  0.005427
  4C   4s         0.001681 -0.016621 -0.001179 -0.033014  0.002234 -0.043534
  4C   5s         0.003937 -0.014292 -0.011775 -0.022637  0.006864 -0.009614
  4C   1pz        0.000000 -0.000000  0.000000  0.000000 -0.000000 -0.000000
  4C   1px        0.000040  0.000291 -0.000093 -0.003094  0.000072 -0.000366
  4C   1py        0.000003 -0.000057  0.000023  0.000350 -0.000025  0.000012
  4C   2pz       -0.000000  0.000000 -0.000000  0.000000  0.000000  0.000000
  4C   2px       -0.000767  0.009330 -0.000938  0.007407 -0.000847  0.028263
  4C   2py        0.000095 -0.000836 -0.000002 -0.000836  0.000195 -0.003019
  4C   3pz       -0.000000  0.000000 -0.000000  0.000000  0.000000  0.000000
  4C   3px       -0.001310  0.004340  0.003456  0.009249 -0.002188  0.003830
  4C   3py       -0.000117 -0.000400 -0.000531 -0.000793  0.000512 -0.000230
  4C   1dz2      -0.000012  0.000183  0.000005 -0.000382 -0.000015  0.000240
  4C   1dxz      -0.000000  0.000000 -0.000000  0.000000  0.000000  0.000000
  4C   1dyz      -0.000000  0.000000  0.000000  0.000000 -0.000000 -0.000000
  4C   1dx2y2     0.000029 -0.000309 -0.000014  0.000216  0.000039 -0.000399
  4C   1dxy      -0.000036  0.000072 -0.000018 -0.000004  0.000024  0.000121
  4C   2dz2      -0.000121  0.001200 -0.000358  0.001195 -0.000087  0.004489
  4C   2dxz       0.000000 -0.000000  0.000000 -0.000000 -0.000000 -0.000000
  4C   2dyz       0.000000  0.000000 -0.000000 -0.000000  0.000000  0.000000
  4C   2dx2y2     0.000166 -0.002057  0.000639 -0.001880  0.000086 -0.007627
  4C   2dxy       0.000024  0.000293  0.000006  0.000359 -0.000188  0.001536
  4C   1f0       -0.000000 -0.000000  0.000000  0.000000 -0.000000 -0.000000
  4C   1f+1       0.000030 -0.000127  0.000039 -0.000143  0.000014 -0.000102
  4C   1f-1      -0.000006  0.000003  0.000001  0.000017 -0.000005  0.000004
  4C   1f+2      -0.000000  0.000000 -0.000000 -0.000000  0.000000  0.000000
  4C   1f-2      -0.000000 -0.000000  0.000000 -0.000000 -0.000000 -0.000000
  4C   1f+3       0.000017 -0.000164  0.000057 -0.000186  0.000006 -0.000136
  4C   1f-3      -0.000017  0.000011  0.000002  0.000069 -0.000017  0.000016
  5O   1s        -0.435966  0.000003  0.000005  0.000001  0.000004 -0.000001
  5O   2s        -0.638277 -0.000058  0.000195 -0.000021 -0.000073  0.000015
  5O   3s        -0.038284  0.000445 -0.002417  0.000267  0.000761 -0.000254
  5O   4s         0.031480  0.000226  0.006622 -0.001014 -0.002671  0.000962
  5O   5s        -0.012844 -0.001458 -0.003764  0.001363  0.002266  0.001099
  5O   1pz        0.000000  0.000000  0.000000  0.000000 -0.000000  0.000000
  5O   1px       -0.001827  0.000155 -0.000227  0.000005 -0.000055 -0.000015
  5O   1py        0.000817  0.000001  0.000708  0.000005 -0.000176  0.000015
  5O   2pz       -0.000002 -0.000001 -0.000003 -0.000000  0.000001 -0.000000
  5O   2px        0.004045 -0.000554  0.001544 -0.000161  0.000336  0.000286
  5O   2py       -0.003753 -0.000842 -0.004891  0.000025  0.001437 -0.000311
  5O   3pz        0.000000  0.000001 -0.000000 -0.000000  0.000001  0.000001
  5O   3px       -0.000475  0.000028 -0.002104 -0.000141  0.001797  0.001676
  5O   3py        0.000895  0.001070  0.000274 -0.000639  0.000992  0.000678
  5O   1dz2       0.000245 -0.000107 -0.000008  0.000024  0.000015 -0.000003
  5O   1dxz      -0.000000  0.000000  0.000000 -0.000000 -0.000000 -0.000000
  5O   1dyz      -0.000000  0.000000 -0.000000 -0.000000  0.000000  0.000000
  5O   1dx2y2     0.000167  0.000047  0.000167  0.000012 -0.000085 -0.000034
  5O   1dxy       0.000057  0.000029  0.000224 -0.000013  0.000045  0.000003
  5O   2dz2      -0.001241  0.000521 -0.000766 -0.000043 -0.000016 -0.000100
  5O   2dxz      -0.000000 -0.000000 -0.000002  0.000000  0.000000  0.000000
  5O   2dyz       0.000002 -0.000000  0.000001  0.000000 -0.000000  0.000000
  5O   2dx2y2    -0.000910 -0.000428 -0.001707 -0.000057  0.000568  0.000067
  5O   2dxy      -0.000439 -0.000323 -0.002309  0.000060 -0.000220 -0.000014
  5O   1f0       -0.000000 -0.000000  0.000001  0.000000 -0.000000 -0.000000
  5O   1f+1      -0.000175  0.000046 -0.000117  0.000016 -0.000013 -0.000012
  5O   1f-1       0.000023 -0.000062  0.000486  0.000014 -0.000000 -0.000029
  5O   1f+2       0.000000 -0.000000  0.000000  0.000000 -0.000000 -0.000000
  5O   1f-2       0.000000  0.000000  0.000001 -0.000000  0.000000  0.000000
  5O   1f+3       0.000346  0.000069  0.000652 -0.000017  0.000093  0.000020
  5O   1f-3      -0.000164 -0.000092 -0.000126 -0.000011  0.000034 -0.000005
  6H   1s        -0.000843  0.000205  0.000441 -0.000068  0.000058  0.000043
  6H   2s        -0.001585  0.000623  0.001756  0.000577 -0.001239 -0.000982
  6H   3s         0.000967 -0.000883 -0.000765 -0.000410  0.000396 -0.000230
  6H   1pz        0.000001 -0.000000 -0.000000 -0.000000  0.000000  0.000000
  6H   1px        0.000733 -0.000198 -0.000292 -0.000006  0.000111  0.000122
  6H   1py        0.000771 -0.000286 -0.000393 -0.000134  0.000119  0.000155
                      6         7         8         9        10        11   
                  -1.02449  -0.76039  -0.68816  -0.63011  -0.55817  -0.54600
                   1.00000   1.00000   1.00000   1.00000   1.00000   1.00000
                  --------  --------  --------  --------  --------  --------
  0C   1s        -0.006233  0.038132  0.035865  0.043754  0.056375  0.019623
  0C   2s        -0.012804  0.080429  0.076002  0.093055  0.120483  0.041877
  0C   3s         0.019718 -0.131682 -0.125339 -0.153802 -0.199559 -0.068370
  0C   4s         0.011223 -0.126590 -0.134107 -0.181644 -0.266318 -0.097417
  0C   5s         0.013466 -0.030074 -0.035512 -0.048320 -0.057864 -0.017356
  0C   1pz        0.000011 -0.000047 -0.000044 -0.000052 -0.000032 -0.000021
  0C   1px        0.006042 -0.054960 -0.036223 -0.025293 -0.059878  0.010207
  0C   1py        0.013905 -0.052722 -0.052201 -0.064320 -0.026203 -0.030808
  0C   2pz        0.000003 -0.000026 -0.000030 -0.000041 -0.000035 -0.000022
  0C   2px       -0.000112 -0.034978 -0.024474 -0.019984 -0.057926  0.004255
  0C   2py        0.005202 -0.028809 -0.034887 -0.051085 -0.031988 -0.031099
  0C   3pz        0.000004 -0.000006 -0.000008 -0.000009 -0.000003 -0.000002
  0C   3px        0.001622 -0.005948 -0.004004 -0.003864 -0.008939  0.003011
  0C   3py        0.004556 -0.006970 -0.009032 -0.010950 -0.001231 -0.003074
  0C   1dz2      -0.000757  0.003847  0.003107  0.003210  0.002959  0.000952
  0C   1dxz       0.000000 -0.000004 -0.000003 -0.000002 -0.000003  0.000001
  0C   1dyz       0.000002 -0.000005 -0.000006 -0.000007 -0.000003 -0.000004
  0C   1dx2y2    -0.001139 -0.000068  0.001897  0.004121 -0.002059  0.003580
  0C   1dxy       0.000505 -0.004078 -0.002829 -0.002082 -0.002389  0.000485
  0C   2dz2      -0.000806  0.004182  0.004066  0.005517  0.006422  0.003188
  0C   2dxz      -0.000001 -0.000004 -0.000003 -0.000004 -0.000008 -0.000000
  0C   2dyz       0.000002 -0.000004 -0.000007 -0.000012 -0.000007 -0.000009
  0C   2dx2y2    -0.001309 -0.002093  0.002236  0.006558 -0.003491  0.006876
  0C   2dxy      -0.001037 -0.003729 -0.002980 -0.003606 -0.006908 -0.000338
  0C   1f0       -0.000001  0.000002  0.000002  0.000003  0.000002  0.000002
  0C   1f+1      -0.000144  0.001041  0.000608  0.000523  0.001532  0.000040
  0C   1f-1      -0.000565  0.000949  0.001158  0.001715  0.000672  0.001207
  0C   1f+2      -0.000001  0.000000  0.000002  0.000003 -0.000001  0.000003
  0C   1f-2      -0.000000 -0.000002 -0.000002 -0.000002 -0.000003 -0.000001
  0C   1f+3      -0.000190 -0.000216 -0.000948 -0.001676 -0.001118 -0.000917
  0C   1f-3       0.000813  0.000418 -0.000434 -0.001231  0.002292 -0.001456
  1C   1s        -0.040491  0.068911  0.031403  0.005157 -0.019358 -0.021905
  1C   2s        -0.084097  0.145013  0.066340  0.011197 -0.041330 -0.046453
  1C   3s         0.134094 -0.232076 -0.106283 -0.020485  0.071373  0.071405
  1C   4s         0.099126 -0.200146 -0.131186 -0.047497  0.109306  0.125193
  1C   5s         0.052693 -0.049293 -0.085296 -0.020516 -0.000674  0.038063
  1C   1pz        0.000045  0.000047  0.000039  0.000048  0.000149  0.000021
  1C   1px       -0.027859 -0.061636  0.067246  0.191042 -0.006314  0.174069
  1C   1py        0.082394  0.071341  0.037798  0.026491  0.222450 -0.007001
  1C   2pz        0.000016  0.000033  0.000027  0.000031  0.000083  0.000013
  1C   2px       -0.019874  0.002398  0.035873  0.093543  0.002028  0.125633
  1C   2py        0.033259  0.041957  0.028611  0.023108  0.124143 -0.006256
  1C   3pz        0.000009 -0.000004 -0.000006 -0.000004  0.000014  0.000004
  1C   3px        0.030282 -0.023294 -0.034742 -0.005690  0.002465  0.034593
  1C   3py        0.008273 -0.000494 -0.002224 -0.005548  0.019043 -0.001509
  1C   1dz2      -0.007229  0.006544  0.002806  0.000613 -0.002721 -0.001223
  1C   1dxz      -0.000003 -0.000004 -0.000002 -0.000001 -0.000008  0.000001
  1C   1dyz       0.000011 -0.000004 -0.000005 -0.000005  0.000001 -0.000002
  1C   1dx2y2    -0.006645 -0.007166  0.001053  0.006300 -0.001444  0.005064
  1C   1dxy      -0.006299 -0.002174 -0.001505 -0.001157 -0.013407  0.001326
  1C   2dz2      -0.006389  0.006469  0.004117  0.001196 -0.007170 -0.007053
  1C   2dxz       0.000004 -0.000008 -0.000006 -0.000003  0.000003  0.000003
  1C   2dyz       0.000011 -0.000012 -0.000004  0.000003 -0.000001  0.000008
  1C   2dx2y2    -0.004825  0.003785 -0.003050 -0.007807  0.014197  0.001437
  1C   2dxy       0.004475 -0.009441 -0.005666 -0.002131 -0.001581  0.004065
  1C   1f0       -0.000002 -0.000003 -0.000002 -0.000002 -0.000005 -0.000001
  1C   1f+1       0.000681  0.000213 -0.001223 -0.002762  0.000703 -0.002819
  1C   1f-1      -0.001652 -0.001274 -0.000890 -0.000789 -0.003167  0.000068
  1C   1f+2      -0.000003 -0.000001 -0.000001 -0.000001 -0.000001 -0.000000
  1C   1f-2      -0.000003  0.000004  0.000003  0.000003 -0.000003  0.000002
  1C   1f+3      -0.003177  0.004139  0.001901  0.000567 -0.004108 -0.000597
  1C   1f-3       0.002002 -0.001126 -0.000242  0.000750 -0.001933  0.001519
  2C   1s        -0.008453  0.066234 -0.037950 -0.053082 -0.000484  0.013930
  2C   2s        -0.017242  0.139002 -0.080270 -0.112241 -0.000980  0.029343
  2C   3s         0.021638 -0.209629  0.131617  0.171316  0.004164 -0.040977
  2C   4s         0.040791 -0.302009  0.133269  0.289147 -0.024107 -0.099695
  2C   5s        -0.025261 -0.018108  0.018936  0.093221 -0.021289 -0.076813
  2C   1pz        0.000003  0.000008  0.000007  0.000011  0.000031  0.000008
  2C   1px       -0.017344  0.068373  0.095642 -0.062679 -0.012402 -0.256252
  2C   1py        0.008142  0.000284 -0.003523  0.022764  0.045916  0.045773
  2C   2pz        0.000002  0.000007  0.000007  0.000010  0.000024  0.000007
  2C   2px       -0.012994  0.050211  0.041433 -0.028208  0.012670 -0.157419
  2C   2py        0.005499  0.002325  0.004838  0.018329  0.031837  0.030307
  2C   3pz       -0.000003  0.000001  0.000005  0.000006  0.000008  0.000003
  2C   3px        0.041389 -0.022870 -0.082688 -0.011249 -0.028399 -0.023598
  2C   3py       -0.008880  0.003756  0.017518  0.010153  0.015542  0.008095
  2C   1dz2      -0.000972  0.006028 -0.002726 -0.003517  0.000329 -0.000186
  2C   1dxz      -0.000001 -0.000001 -0.000001 -0.000001 -0.000003 -0.000000
  2C   1dyz       0.000000 -0.000001  0.000000  0.000001 -0.000000 -0.000000
  2C   1dx2y2     0.000777 -0.008759  0.003819  0.004658 -0.000894  0.000232
  2C   1dxy      -0.001537  0.001250 -0.002490 -0.002894 -0.004307 -0.000401
  2C   2dz2      -0.005239  0.020913 -0.003352 -0.018259  0.002131  0.005246
  2C   2dxz      -0.000000 -0.000003 -0.000003 -0.000005 -0.000004 -0.000002
  2C   2dyz       0.000001 -0.000001  0.000002  0.000003 -0.000001  0.000001
  2C   2dx2y2     0.006509 -0.034078  0.002094  0.025111 -0.003761 -0.009982
  2C   2dxy      -0.002744  0.005623 -0.005282 -0.014242 -0.005434 -0.000306
  2C   1f0       -0.000001 -0.000001 -0.000000 -0.000001 -0.000001 -0.000001
  2C   1f+1       0.000838 -0.001125 -0.001562  0.000534  0.000131  0.003513
  2C   1f-1      -0.000518 -0.000272 -0.000052 -0.000478 -0.000774 -0.000868
  2C   1f+2       0.000000  0.000001  0.000000  0.000000  0.000001  0.000000
  2C   1f-2      -0.000001  0.000000  0.000000 -0.000000 -0.000001 -0.000000
  2C   1f+3      -0.000444 -0.001061 -0.001904  0.000106 -0.001163  0.003643
  2C   1f-3      -0.000909 -0.000653  0.000077 -0.001234 -0.002323 -0.002535
  3C   1s        -0.000597  0.025030 -0.074309  0.030615  0.001258  0.028584
  3C   2s        -0.001280  0.052608 -0.156170  0.064398  0.002645  0.060526
  3C   3s         0.003366 -0.087976  0.240524 -0.092344 -0.003165 -0.098056
  3C   4s        -0.008591 -0.052388  0.315160 -0.177398 -0.010105 -0.131321
  3C   5s        -0.023566  0.004564  0.112243 -0.022250  0.021876 -0.042201
  3C   1pz        0.000000  0.000000  0.000002  0.000001  0.000004 -0.000001
  3C   1px       -0.001355  0.031262 -0.001947 -0.124450  0.012356  0.213288
  3C   1py        0.000440 -0.004234  0.003415  0.016682  0.003797 -0.026935
  3C   2pz       -0.000000  0.000001  0.000002  0.000001  0.000003  0.000000
  3C   2px        0.003945 -0.001037 -0.002304 -0.059632  0.009188  0.132835
  3C   2py       -0.000811  0.000716  0.003763  0.008641  0.003361 -0.016123
  3C   3pz        0.000001 -0.000000 -0.000000 -0.000003 -0.000001 -0.000001
  3C   3px        0.014393 -0.006648 -0.057110  0.017108 -0.024516 -0.025301
  3C   3py       -0.000456  0.000851  0.006750 -0.005418  0.001196  0.001266
  3C   1dz2      -0.000060  0.002331 -0.005775  0.001750  0.000084  0.001611
  3C   1dxz       0.000000  0.000000 -0.000000 -0.000000 -0.000000  0.000000
  3C   1dyz       0.000000 -0.000000  0.000000 -0.000000  0.000000  0.000000
  3C   1dx2y2     0.000083 -0.003756  0.009044 -0.002687 -0.000282 -0.002742
  3C   1dxy       0.000002  0.001039 -0.002512  0.000317 -0.000482  0.001012
  3C   2dz2       0.000867 -0.000673 -0.016988  0.013782  0.001178  0.003970
  3C   2dxz       0.000000 -0.000001 -0.000001 -0.000001 -0.000000 -0.000000
  3C   2dyz      -0.000000 -0.000000  0.000001 -0.000001  0.000000  0.000000
  3C   2dx2y2    -0.001337  0.001140  0.027207 -0.022023 -0.002218 -0.007064
  3C   2dxy       0.000450 -0.001333 -0.008052  0.004395 -0.000330  0.001267
  3C   1f0        0.000000  0.000000 -0.000000 -0.000000  0.000000  0.000000
  3C   1f+1       0.000061 -0.000227 -0.000263  0.001931 -0.000191 -0.003344
  3C   1f-1       0.000053  0.000052 -0.000031 -0.000239  0.000029  0.000432
  3C   1f+2      -0.000000 -0.000000  0.000000 -0.000000 -0.000000 -0.000000
  3C   1f-2      -0.000000 -0.000000  0.000001 -0.000000 -0.000000  0.000000
  3C   1f+3       0.000108 -0.000437  0.000448  0.001942 -0.000276 -0.003981
  3C   1f-3       0.000209  0.000256 -0.000401 -0.000770  0.000145  0.001614
  4C   1s        -0.000041  0.007274 -0.045029  0.054962 -0.003015 -0.052942
  4C   2s        -0.000110  0.015380 -0.095213  0.116539 -0.006396 -0.112708
  4C   3s         0.000382 -0.025455  0.159636 -0.196562  0.010207  0.189018
  4C   4s        -0.000322 -0.025464  0.148929 -0.200164  0.017000  0.240289
  4C   5s        -0.004065 -0.002322  0.052781 -0.065586  0.015802  0.101447
  4C   1pz        0.000000 -0.000000  0.000000 -0.000000  0.000000  0.000000
  4C   1px       -0.000139  0.014698 -0.080371  0.084411 -0.003190 -0.053382
  4C   1py        0.000018 -0.001763  0.009523 -0.009603  0.001042  0.006030
  4C   2pz        0.000000  0.000000  0.000000  0.000000  0.000000  0.000000
  4C   2px       -0.000358  0.010488 -0.040697  0.048764 -0.004579 -0.050499
  4C   2py        0.000104 -0.000941  0.005353 -0.005402  0.001250  0.006049
  4C   3pz       -0.000000  0.000000  0.000000  0.000001  0.000001  0.000001
  4C   3px        0.001138  0.000737 -0.013506  0.015617 -0.004604 -0.022739
  4C   3py       -0.000626 -0.000144  0.001907 -0.000827  0.001384  0.003333
  4C   1dz2      -0.000010  0.000831 -0.004150  0.004198 -0.000188 -0.002762
  4C   1dxz      -0.000000 -0.000000  0.000000 -0.000000 -0.000000  0.000000
  4C   1dyz       0.000000 -0.000000  0.000002 -0.000002  0.000000  0.000002
  4C   1dx2y2     0.000012 -0.001022  0.004608 -0.004105  0.000139  0.001771
  4C   1dxy      -0.000044  0.000228 -0.000989  0.000868 -0.000081 -0.000244
  4C   2dz2      -0.000124  0.001250 -0.003053  0.003974 -0.000524 -0.005701
  4C   2dxz       0.000000 -0.000000  0.000000 -0.000001 -0.000000  0.000000
  4C   2dyz       0.000000 -0.000000  0.000002 -0.000003  0.000000  0.000003
  4C   2dx2y2     0.000189 -0.001579  0.001400 -0.002355  0.000534  0.005064
  4C   2dxy       0.000030  0.000098 -0.000722 -0.000015 -0.000576 -0.001353
  4C   1f0       -0.000000 -0.000000 -0.000000 -0.000000 -0.000000 -0.000000
  4C   1f+1       0.000024 -0.000385  0.001700 -0.001887  0.000116  0.001685
  4C   1f-1      -0.000019  0.000021 -0.000203  0.000189 -0.000042 -0.000194
  4C   1f+2       0.000000  0.000000 -0.000000  0.000000  0.000000 -0.000000
  4C   1f-2      -0.000000  0.000000 -0.000001  0.000001 -0.000000 -0.000001
  4C   1f+3      -0.000002 -0.000308  0.001020 -0.001179  0.000060  0.001182
  4C   1f-3      -0.000064  0.000014 -0.000378  0.000308 -0.000116 -0.000428
  5O   1s        -0.093352 -0.028292 -0.007727  0.004079  0.005494  0.011769
  5O   2s        -0.218107 -0.066706 -0.018293  0.009572  0.012953  0.027870
  5O   3s         0.312409  0.100002  0.028752 -0.012361 -0.020813 -0.041453
  5O   4s         0.437228  0.141349  0.034409 -0.031148 -0.021073 -0.067452
  5O   5s         0.120489  0.067294  0.022578 -0.010163 -0.014040 -0.045115
  5O   1pz       -0.000006  0.000053  0.000054  0.000071 -0.000194  0.000057
  5O   1px        0.081517  0.014088  0.026450  0.062661 -0.017837  0.085872
  5O   1py       -0.029106  0.080277  0.080888  0.100381 -0.322963  0.072094
  5O   2pz       -0.000009  0.000041  0.000044  0.000059 -0.000156  0.000046
  5O   2px        0.072609  0.014056  0.021232  0.048619 -0.008569  0.067565
  5O   2py       -0.031814  0.060799  0.065442  0.083384 -0.261477  0.058920
  5O   3pz       -0.000002  0.000011  0.000013  0.000017 -0.000054  0.000014
  5O   3px        0.002658  0.003583  0.008892  0.019917 -0.001894  0.026701
  5O   3py       -0.004159  0.015920  0.017584  0.022211 -0.091846  0.016168
  5O   1dz2      -0.004217 -0.000408 -0.000080 -0.000217 -0.000358 -0.000636
  5O   1dxz       0.000001  0.000002  0.000001  0.000001 -0.000006  0.000001
  5O   1dyz       0.000005  0.000000 -0.000001 -0.000001  0.000000 -0.000001
  5O   1dx2y2    -0.001591  0.000505  0.001376  0.002538 -0.002339  0.002303
  5O   1dxy      -0.000082  0.002806  0.001903  0.001523 -0.008838  0.000721
  5O   2dz2      -0.012347 -0.001336 -0.000258 -0.000288 -0.001488 -0.000750
  5O   2dxz      -0.000000  0.000005  0.000004  0.000003 -0.000016  0.000001
  5O   2dyz       0.000016  0.000002 -0.000002 -0.000006 -0.000000 -0.000005
  5O   2dx2y2    -0.005836  0.000602  0.004982  0.009882 -0.004122  0.008635
  5O   2dxy      -0.003734  0.007065  0.004436  0.002377 -0.026037 -0.000771
  5O   1f0        0.000000 -0.000002 -0.000002 -0.000002  0.000006 -0.000002
  5O   1f+1      -0.002033 -0.000420 -0.000488 -0.000834  0.000374 -0.000839
  5O   1f-1       0.000508 -0.001315 -0.001186 -0.001348  0.003933 -0.000876
  5O   1f+2       0.000002 -0.000001 -0.000002 -0.000002  0.000004 -0.000002
  5O   1f-2       0.000004  0.000001  0.000001  0.000001 -0.000001  0.000001
  5O   1f+3       0.003113  0.000804  0.000343  0.000352 -0.000111  0.000447
  5O   1f-3      -0.001686 -0.000377  0.000625  0.001492 -0.000157  0.001207
  6H   1s         0.083378  0.051449  0.039340  0.046287 -0.122169  0.038559
  6H   2s         0.063826  0.045782  0.040658  0.055507 -0.144089  0.053344
  6H   3s         0.003548  0.009164  0.009209  0.010979 -0.047331  0.011106
  6H   1pz       -0.000009 -0.000003 -0.000003 -0.000004  0.000005 -0.000003
  6H   1px       -0.009038 -0.007011 -0.004023 -0.003140  0.014920 -0.001540
  6H   1py       -0.013078 -0.003793 -0.003268 -0.005076  0.003731 -0.005207
                     12        13        14        15        16        17   
                  -0.40481  -0.39815  -0.31838  -0.30688  -0.30399  -0.29347
                   1.00000   1.00000   1.00000   1.00000   1.00000   1.00000
                  --------  --------  --------  --------  --------  --------
  0C   1s         0.000003 -0.029794 -0.039925  0.017978 -0.000004  0.038461
  0C   2s         0.000006 -0.064081 -0.086235  0.038867 -0.000008  0.083016
  0C   3s        -0.000011  0.112776  0.149164 -0.068119  0.000013 -0.140489
  0C   4s        -0.000017  0.124735  0.210985 -0.091742  0.000021 -0.223718
  0C   5s         0.000022  0.109657  0.184229 -0.089170  0.000044 -0.249557
  0C   1pz        0.092815  0.000005 -0.000107  0.000052 -0.045826  0.000205
  0C   1px       -0.000012 -0.029802 -0.129019  0.060524  0.000006  0.103412
  0C   1py       -0.000069 -0.006055 -0.112919  0.062024  0.000009  0.246315
  0C   2pz        0.085474 -0.000003 -0.000081  0.000042 -0.040278  0.000155
  0C   2px       -0.000012 -0.038246 -0.100391  0.047451  0.000008  0.063828
  0C   2py       -0.000063 -0.011400 -0.084328  0.050597  0.000010  0.188820
  0C   3pz        0.022613  0.000014 -0.000024  0.000010 -0.021030  0.000052
  0C   3px        0.000003 -0.000173 -0.030862  0.018541  0.000011  0.008356
  0C   3py       -0.000007  0.013961 -0.023913  0.011841  0.000016  0.067231
  0C   1dz2       0.000009  0.000985  0.004256 -0.002227 -0.000002 -0.005970
  0C   1dxz       0.004481 -0.000002 -0.000009  0.000004 -0.001816  0.000011
  0C   1dyz       0.005742  0.000000 -0.000007  0.000004 -0.001266  0.000013
  0C   1dx2y2     0.000004 -0.001993 -0.000320 -0.000627  0.000000 -0.004056
  0C   1dxy      -0.000004 -0.003006 -0.010237  0.004661  0.000000  0.013064
  0C   2dz2       0.000021  0.005851  0.006450 -0.003910 -0.000004 -0.005113
  0C   2dxz       0.011226 -0.000008 -0.000014  0.000006 -0.006690  0.000013
  0C   2dyz       0.014364 -0.000004 -0.000011  0.000007 -0.001840  0.000018
  0C   2dx2y2     0.000009 -0.004615 -0.001376 -0.000876  0.000001 -0.009427
  0C   2dxy      -0.000010 -0.008666 -0.015765  0.007937  0.000004  0.017971
  0C   1f0       -0.002928 -0.000000  0.000000 -0.000001  0.000675 -0.000002
  0C   1f+1       0.000003  0.000189  0.000636 -0.000452 -0.000001  0.000085
  0C   1f-1       0.000007  0.000167  0.000046 -0.000207 -0.000000 -0.000928
  0C   1f+2      -0.001027 -0.000001 -0.000000 -0.000001 -0.000637 -0.000001
  0C   1f-2       0.002108  0.000000 -0.000001  0.000000 -0.000342  0.000000
  0C   1f+3      -0.000002  0.000554  0.000164 -0.000038  0.000000  0.000010
  0C   1f-3      -0.000000  0.000613 -0.000109  0.000452 -0.000001  0.000431
  1C   1s        -0.000003 -0.005067  0.023201 -0.003923  0.000002 -0.022398
  1C   2s        -0.000005 -0.010976  0.050323 -0.008768  0.000005 -0.048655
  1C   3s         0.000007  0.024275 -0.084948  0.021715 -0.000009  0.082085
  1C   4s         0.000020 -0.002404 -0.154191 -0.028391 -0.000004  0.124644
  1C   5s         0.000040  0.054210 -0.219058 -0.063578 -0.000012  0.100941
[...]
      f-3     :    -0.000216

  2 C s       :     0.028515  s :     0.028515
      pz      :    -0.006984  p :     0.065747
      px      :     0.012340
      py      :     0.060391
      dz2     :    -0.000365  d :     0.009871
      dxz     :    -0.000289
      dyz     :     0.000023
      dx2y2   :     0.004166
      dxy     :     0.006335
      f0      :     0.000081  f :     0.000349
      f+1     :     0.000023
      f-1     :     0.000052
      f+2     :    -0.000105
      f-2     :    -0.000007
      f+3     :     0.000541
      f-3     :    -0.000236

  3 C s       :    -0.006169  s :    -0.006169
      pz      :    -0.006739  p :     0.099066
      px      :     0.000853
      py      :     0.104952
      dz2     :    -0.000227  d :     0.010775
      dxz     :     0.000035
      dyz     :     0.000014
      dx2y2   :     0.000503
      dxy     :     0.010450
      f0      :     0.000110  f :    -0.000035
      f+1     :     0.000042
      f-1     :     0.000062
      f+2     :    -0.000145
      f-2     :    -0.000011
      f+3     :    -0.000045
      f-3     :    -0.000047

  4 C s       :     0.017572  s :     0.017572
      pz      :     0.010577  p :     0.254597
      px      :    -0.012917
      py      :     0.256937
      dz2     :    -0.000020  d :     0.005634
      dxz     :     0.000492
      dyz     :    -0.000009
      dx2y2   :     0.000745
      dxy     :     0.004427
      f0      :     0.000161  f :    -0.000205
      f+1     :     0.000054
      f-1     :     0.000092
      f+2     :    -0.000231
      f-2     :    -0.000010
      f+3     :    -0.000198
      f-3     :    -0.000073

  5 O s       :    -0.002912  s :    -0.002912
      pz      :    -0.002862  p :     0.023402
      px      :     0.023395
      py      :     0.002869
      dz2     :     0.000013  d :     0.000675
      dxz     :    -0.000021
      dyz     :    -0.000028
      dx2y2   :     0.000265
      dxy     :     0.000446
      f0      :     0.000005  f :     0.000092
      f+1     :     0.000004
      f-1     :     0.000005
      f+2     :    -0.000001
      f-2     :     0.000000
      f+3     :    -0.000001
      f-3     :     0.000080

  6 H s       :     0.000996  s :     0.000996
      pz      :    -0.000009  p :    -0.000114
      px      :    -0.000068
      py      :    -0.000037



                     *******************************
                     * LOEWDIN POPULATION ANALYSIS *
                     *******************************

-------------------------------------------
LOEWDIN ATOMIC CHARGES AND SPIN POPULATIONS
-------------------------------------------
   0 C :    0.053708    0.379108
   1 C :   -0.199799    0.112996
   2 C :   -0.054983    0.082948
   3 C :   -0.156227    0.131724
   4 C :   -0.067077    0.261800
   5 O :    0.196713    0.028561
   6 H :    0.227665    0.002863

----------------------------------------------------
LOEWDIN REDUCED ORBITAL CHARGES AND SPIN POPULATIONS
----------------------------------------------------
CHARGE
  0 C s       :     3.034694  s :     3.034694
      pz      :     0.649663  p :     2.600488
      px      :     0.890887
      py      :     1.059938
      dz2     :     0.026191  d :     0.264426
      dxz     :     0.022412
      dyz     :     0.041030
      dx2y2   :     0.083556
      dxy     :     0.091238
      f0      :     0.005351  f :     0.046684
      f+1     :     0.002882
      f-1     :     0.003928
      f+2     :     0.002928
      f-2     :     0.001943
      f+3     :     0.017646
      f-3     :     0.012007

  1 C s       :     2.721124  s :     2.721124
      pz      :     0.780908  p :     2.699823
      px      :     0.931808
      py      :     0.987107
      dz2     :     0.051138  d :     0.693521
      dxz     :     0.039389
      dyz     :     0.174682
      dx2y2   :     0.181406
      dxy     :     0.246905
      f0      :     0.008116  f :     0.085330
      f+1     :     0.004278
      f-1     :     0.010970
      f+2     :     0.006628
      f-2     :     0.006871
      f+3     :     0.028784
      f-3     :     0.019683

  2 C s       :     2.734715  s :     2.734715
      pz      :     0.739132  p :     2.718123
      px      :     1.054029
      py      :     0.924962
      dz2     :     0.034196  d :     0.549431
      dxz     :     0.172275
      dyz     :     0.004232
      dx2y2   :     0.145413
      dxy     :     0.193314
      f0      :     0.004967  f :     0.052714
      f+1     :     0.007742
      f-1     :     0.001762
      f+2     :     0.004256
      f-2     :     0.001021
      f+3     :     0.019528
      f-3     :     0.013438

  3 C s       :     2.835934  s :     2.835934
      pz      :     0.963434  p :     3.018623
      px      :     1.197483
      py      :     0.857706
      dz2     :     0.031536  d :     0.256734
      dxz     :     0.045461
      dyz     :     0.000403
      dx2y2   :     0.093431
      dxy     :     0.085902
      f0      :     0.004613  f :     0.044936
      f+1     :     0.007798
      f-1     :     0.000807
      f+2     :     0.007362
      f-2     :     0.000224
      f+3     :     0.012845
      f-3     :     0.011288

  4 C s       :     3.323978  s :     3.323978
      pz      :     0.582947  p :     2.565336
      px      :     1.356410
      py      :     0.625979
      dz2     :     0.015921  d :     0.152144
      dxz     :     0.046448
      dyz     :     0.000585
      dx2y2   :     0.047127
      dxy     :     0.042063
      f0      :     0.003182  f :     0.025620
      f+1     :     0.003592
      f-1     :     0.000525
      f+2     :     0.005026
      f-2     :     0.000286
      f+3     :     0.006128
      f-3     :     0.006881

  5 O s       :     3.320523  s :     3.320523
      pz      :     1.623413  p :     4.401850
      px      :     1.501038
      py      :     1.277399
      dz2     :     0.008884  d :     0.075829
      dxz     :     0.002979
      dyz     :     0.010565
      dx2y2   :     0.016266
      dxy     :     0.037135
      f0      :     0.000384  f :     0.005086
      f+1     :     0.000334
      f-1     :     0.000948
      f+2     :     0.000280
      f-2     :     0.000313
      f+3     :     0.001095
      f-3     :     0.001731

  6 H s       :     0.629190  s :     0.629190
      pz      :     0.036292  p :     0.143145
      px      :     0.062543
      py      :     0.044309


SPIN
  0 C s       :     0.081268  s :     0.081268
      pz      :     0.011162  p :     0.286539
      px      :     0.116576
      py      :     0.158801
      dz2     :    -0.000050  d :     0.006835
      dxz     :    -0.000661
      dyz     :    -0.001516
      dx2y2   :     0.000272
      dxy     :     0.008790
      f0      :     0.000044  f :     0.004466
      f+1     :     0.000061
      f-1     :     0.000064
      f+2     :    -0.000055
      f-2     :     0.000079
      f+3     :     0.003767
      f-3     :     0.000507

  1 C s       :     0.009180  s :     0.009180
      pz      :    -0.004600  p :     0.085084
      px      :     0.072811
      py      :     0.016873
      dz2     :     0.000222  d :     0.016410
      dxz     :    -0.000183
      dyz     :     0.000339
      dx2y2   :     0.006876
      dxy     :     0.009156
      f0      :     0.000090  f :     0.002322
      f+1     :     0.000104
      f-1     :     0.000092
      f+2     :    -0.000065
      f-2     :    -0.000081
      f+3     :     0.002477
      f-3     :    -0.000295

  2 C s       :     0.004802  s :     0.004802
      pz      :    -0.004831  p :     0.065066
      px      :     0.005269
      py      :     0.064628
      dz2     :     0.000527  d :     0.008984
      dxz     :    -0.001672
      dyz     :     0.000094
      dx2y2   :     0.006374
      dxy     :     0.003661
      f0      :     0.000104  f :     0.004096
      f+1     :     0.000137
      f-1     :     0.000075
      f+2     :    -0.000077
      f-2     :    -0.000002
      f+3     :     0.003488
      f-3     :     0.000371

  3 C s       :     0.000249  s :     0.000249
      pz      :    -0.004375  p :     0.083768
      px      :     0.002645
      py      :     0.085498
      dz2     :     0.000751  d :     0.046956
      dxz     :     0.000205
      dyz     :     0.000019
      dx2y2   :     0.001605
      dxy     :     0.044375
      f0      :     0.000136  f :     0.000752
      f+1     :     0.000123
      f-1     :     0.000074
      f+2     :    -0.000027
      f-2     :    -0.000003
      f+3     :     0.000116
      f-3     :     0.000333

  4 C s       :     0.002815  s :     0.002815
      pz      :     0.009071  p :     0.253767
      px      :    -0.003192
      py      :     0.247888
      dz2     :     0.000208  d :     0.005105
      dxz     :    -0.000080
      dyz     :    -0.000013
      dx2y2   :     0.000805
      dxy     :     0.004185
      f0      :     0.000096  f :     0.000114
      f+1     :     0.000062
      f-1     :     0.000107
      f+2     :    -0.000262
      f-2     :    -0.000011
      f+3     :    -0.000181
      f-3     :     0.000304

  5 O s       :     0.001745  s :     0.001745
      pz      :    -0.002622  p :     0.022124
      px      :     0.022337
      py      :     0.002410
      dz2     :     0.000018  d :     0.004351
      dxz     :    -0.000021
      dyz     :    -0.000177
      dx2y2   :     0.001339
      dxy     :     0.003192
      f0      :    -0.000004  f :     0.000341
      f+1     :     0.000010
      f-1     :     0.000010
      f+2     :    -0.000006
      f-2     :    -0.000004
      f+3     :     0.000004
      f-3     :     0.000331

  6 H s       :     0.003006  s :     0.003006
      pz      :    -0.000089  p :    -0.000143
      px      :    -0.000013
      py      :    -0.000040



                      *****************************
                      * MAYER POPULATION ANALYSIS *
                      *****************************

  NA   - Mulliken gross atomic population
  ZA   - Total nuclear charge
  QA   - Mulliken gross atomic charge
  VA   - Mayer's total valence
  BVA  - Mayer's bonded valence
  FA   - Mayer's free valence

  ATOM       NA         ZA         QA         VA         BVA        FA
  0 C      6.1096     6.0000    -0.1096     3.1669     3.0064     0.1605
  1 C      5.7933     6.0000     0.2067     3.9715     3.9581     0.0133
  2 C      5.9613     6.0000     0.0387     4.0138     3.9990     0.0148
  3 C      5.7800     6.0000     0.2200     3.1439     3.1315     0.0124
  4 C      6.4456     6.0000    -0.4456     1.6256     1.5532     0.0725
  5 O      8.2645     8.0000    -0.2645     2.2728     2.2721     0.0006
  6 H      0.6458     1.0000     0.3542     0.8823     0.8823     0.0000

  Mayer bond orders larger than 0.100000
B(  0-C ,  1-C ) :   1.4466 B(  0-C ,  2-C ) :   1.1072 B(  0-C ,  3-C ) :   0.1566 
B(  0-C ,  4-C ) :   0.1895 B(  1-C ,  2-C ) :   1.0485 B(  1-C ,  5-O ) :   1.3030 
B(  2-C ,  3-C ) :   1.7273 B(  3-C ,  4-C ) :   1.1736 B(  5-O ,  6-H ) :   0.8495 


-------
TIMINGS
-------

Total SCF time: 0 days 0 hours 0 min 4 sec 

Total time                  ....       4.667 sec
Sum of individual times     ....       3.877 sec  ( 83.1%)

SCF preparation             ....       0.046 sec  (  1.0%)
Fock matrix formation       ....       3.695 sec  ( 79.2%)
  Startup                   ....       0.003 sec  (  0.1% of F)
  Split-RI-J                ....       0.627 sec  ( 17.0% of F)
  XC integration            ....       3.776 sec  (102.2% of F)
    Basis function eval.    ....       0.864 sec  ( 22.9% of XC)
    Density eval.           ....       0.708 sec  ( 18.7% of XC)
    XC-Functional eval.     ....       0.068 sec  (  1.8% of XC)
    XC-Potential eval.      ....       1.767 sec  ( 46.8% of XC)
Diagonalization             ....       0.000 sec  (  0.0%)
Density matrix formation    ....       0.009 sec  (  0.2%)
Total Energy calculation    ....       0.002 sec  (  0.0%)
Population analysis         ....       0.047 sec  (  1.0%)
Orbital Transformation      ....       0.010 sec  (  0.2%)
Orbital Orthonormalization  ....       0.000 sec  (  0.0%)
DIIS solution               ....       0.025 sec  (  0.5%)
SOSCF solution              ....       0.043 sec  (  0.9%)
Finished LeanSCF after   4.8 sec

Maximum memory used throughout the entire LEANSCF-calculation: 17.8 MB

-------------------------   --------------------
FINAL SINGLE POINT ENERGY      -266.092596033302
-------------------------   --------------------

                                *** OPTIMIZATION RUN DONE ***


------------------------------------------------------------------------------
                              ORCA PROPERTY CALCULATIONS
------------------------------------------------------------------------------

GBWName                                 ... 2-pentanol.gbw
Number of atoms                         ...      7
Number of basis functions               ...    192
Max core memory                         ...  16384 MB

Electric properties:
Dipole moment                           ... YES
Quadrupole moment                       ...  NO
Static polarizability (Dipole/Dipole)   ...  NO
Static polarizability (Dipole/Quad.)    ...  NO
Static polarizability (Quad./Quad.)     ...  NO
Static polarizability (Velocity)        ...  NO
Static hyperpolarizability              ...  NO

Atomic electric properties:
Dipole moment                           ...  NO
Quadrupole moment                       ...  NO
Static polarizability                   ...  NO

Choice of electric origin               ... Center of mass
Position of electric origin             ...     0.299495     1.134203    -0.000209

General magnetic properties:
Magnetizability                         ...  NO

EPR properties:
g-Tensor (aka g-matrix)                 ...  NO
Zero-Field splitting spin-orbit         ...  NO
Zero-field splitting spin-spin          ...  NO
Hyperfine couplings                     ...  NO (   0 nuclei)
Quadrupole couplings                    ...  NO (   0 nuclei)
Contact density                         ...  NO (   0 nuclei)

NMR properties:
Chemical shifts                         ...  NO (   0 nuclei)
Spin-rotation constants                 ...  NO (   0 nuclei)
Spin-spin couplings                     ...  NO (   0 nuclei,    0 pairs)

Choice of magnetic origin               ... GIAO
Position of magnetic origin             ...     0.000000     0.000000     0.000000

Properties with geometric perturbations:
SCF Hessian                             ...  NO
IR spectrum                             ...  NO
VCD spectrum                            ...  NO
X-ray spectroscopy properties:
SCF XES/XAS/RIXS spectra                ...  NO

SCF SOC stabilization energy            ...  NO
Diagonal Born-Oppenheimer correction    ...  NO

-------------
DIPOLE MOMENT
-------------

Method             : SCF
Type of density    : Electron Density
Multiplicity       :   2
Irrep              :   0
Energy             :  -266.0925960333020157 Eh
Basis              : AO
                                X                 Y                 Z
Electronic contribution:     -0.654140876      -0.734629354      -0.000555391
Nuclear contribution   :     -0.847634894       2.017163975       0.001236999
                        -----------------------------------------
Total Dipole Moment    :     -1.501775771       1.282534622       0.000681608
                        -----------------------------------------
Magnitude (a.u.)       :      1.974898981
Magnitude (Debye)      :      5.019794281



--------------------
Rotational spectrum 
--------------------
 
Rotational constants in cm-1:             0.363524             0.082960             0.067545 
Rotational constants in MHz :         10898.171550          2487.076875          2024.959835 

Dipole components along the rotational axes: 
x,y,z [a.u.] :    -1.814570     0.779463    -0.000001 
x,y,z [Debye]:    -4.612270     1.981236    -0.000002 

 

Dipole moment calculation done in   0.0 sec 

Maximum memory used throughout the entire PROP-calculation: 12.9 MB

--------------------------------
SUGGESTED CITATIONS FOR THIS RUN
--------------------------------

Below you find a list of papers that are relevant to this ORCA run
We neither can nor want to force you to cite these papers, but we appreciate if you do
You receive ORCA, which is the product of decades of hard work by many enthusiastic individuals, for free
The only thing we kindly ask in return is that you cite our papers,
We deeply appreciate it, if you show your appreciation for ORCA by not just citing the generic ORCA reference.

Please note that relegating all ORCA citations to the supporting information does *not* help us.
SI sections are not indexed - citations you put there will not count into any citation statistics
But we need these citations in order to attract the funding resources that allow us to do what we are doing

Therefore, if you are a happy ORCA user, please consider citing a few of the papers listed below in the main body of your paper

In addition to the list printed below, the program has created the file 2-pentanol.bibtex that contains the list in bibtex format
You can import this file easily into all common literature databanks and citation aid programs


List of essential papers. We consider these as the minimum necessary citations

  1. Neese, F.
     Software update: the ORCA program system, version 6.0
     WIRES Comput. Molec. Sci. 2025 15(1), e70019
     doi.org/10.1002/wcms.7019

List of papers to cite with high priority. The work reported in these papers was absolutely
necessary for this run to complete.
Our perspective: the developers of density functionals and basis sets usually get cited in chemistry papers
Good! But without the algorithms to do something with them, the functionals or basis sets would not do anything.
Hence, in our opinion, the algorithm design and method developments papers are equally worthy of getting cited

  1. Neese, F.
     An improvement of the resolution of the identity approximation for the formation of the Coulomb matrix
     J. Comp. Chem. 2003 24(14), 1740-1747
     doi.org/10.1002/jcc.10318
  2. Neese, F.
     The SHARK Integral Generation and Digestion System
     J. Comp. Chem. 2022 44(3), 381
     doi.org/10.1002/jcc.26942

List of suggested additional citations. These are papers that are important in the 'surrounding' of 
of this run, or papers that preceded the highly important papers. If you like your results we are grateful for a citation.

  1. Neese, F.
     The ORCA program system
     WIRES Comput. Molec. Sci. 2012 2(1), 73-78
     doi.org/10.1002/wcms.81
  2. Neese, F.
     Software update: the ORCA program system, version 4.0
     WIRES Comput. Molec. Sci. 2018 8(1), 1-6
     doi.org/10.1002/wcms.1327
  3. Neese, F.; Wennmohs, F.; Becker, U.; Riplinger, C.
     The ORCA quantum chemistry program package
     J. Chem. Phys. 2020 152(22), 224108
     doi.org/10.1063/5.0004608
  4. Neese, F.
     Software update: The ORCA program system—Version 5.0
     WIRES Comput. Molec. Sci. 2022 12(1), e1606
     doi.org/10.1002/wcms.1606

List of optional additional citations

  1. Neese, F.
     Approximate second-order SCF convergence for spin unrestricted wavefunctions
     Chem. Phys. Lett. 2000 325(1-3), 93-98
     doi.org/10.1016/s0009-2614(00)00662-x

Timings for individual modules:

Sum of individual times          ...      356.412 sec (=   5.940 min)
Startup calculation              ...       10.184 sec (=   0.170 min)   2.9 %
SCF iterations                   ...      276.973 sec (=   4.616 min)  77.7 %
Property calculations            ...        0.184 sec (=   0.003 min)   0.1 %
SCF Gradient evaluation          ...       69.009 sec (=   1.150 min)  19.4 %
Geometry relaxation              ...        0.062 sec (=   0.001 min)   0.0 %
                             ****ORCA TERMINATED NORMALLY****
TOTAL RUN TIME: 0 days 0 hours 6 minutes 0 seconds 453 msec
