
                                 *****************
                                 * O   R   C   A *
                                 *****************

                                            #,                                       
                                            ###                                      
                                            ####                                     
                                            #####                                    
                                            ######                                   
                                           ########,                                 
                                     ,,################,,,,,                         
                               ,,#################################,,                 
                          ,,##########################################,,             
                       ,#########################################, ''#####,          
                    ,#############################################,,   '####,        
                  ,##################################################,,,,####,       
                ,###########''''           ''''###############################       
              ,#####''   ,,,,##########,,,,          '''####'''          '####       
            ,##' ,,,,###########################,,,                        '##       
           ' ,,###''''                  '''############,,,                           
         ,,##''                                '''############,,,,        ,,,,,,###''
      ,#''                                            '''#######################'''  
     '                                                          ''''####''''         
             ,#######,   #######,   ,#######,      ##                                
            ,#'     '#,  ##    ##  ,#'     '#,    #''#        ,####,    ,#,          
            ##       ##  ##   ,#'  ##            #'  '#       #'       ,# #          
            ##       ##  #######   ##           ,######,      #####,      #          
            '#,     ,#'  ##    ##  '#,     ,#' ,#      #,     #,   #      #          
             '#######'   ##     ##  '#######'  #'      '#     '####' #    #          



                #########################################################
                #                        -***-                          #
                #          Department of theory and spectroscopy        #
                #                                                       #
                #                      Frank Neese                      #
                #                                                       #
                #     Directorship, Architecture, Infrastructure        #
                #                    SHARK, DRIVERS                     #
                #        Core code/Algorithms in most modules           #
                #                                                       #
                #        Max Planck Institute fuer Kohlenforschung      #
                #                Kaiser Wilhelm Platz 1                 #
                #                 D-45470 Muelheim/Ruhr                 #
                #                      Germany                          #
                #                                                       #
                #                  All rights reserved                  #
                #                        -***-                          #
                #########################################################


                         Program Version 6.1.0  -  RELEASE   -
                                (GIT: $679e74b7b5$)
                          ($2025-06-10 18:02:51 +0200$)


 With contributions from (in alphabetic order):
[Max-Planck-Institut fuer Kohlenforschung]                               
  Daniel Aravena         : Magnetic Suceptibility                        
  Michael Atanasov       : Ab Initio Ligand Field Theory (pilot matlab implementation)
  Alexander A. Auer      : GIAO ZORA, VPT2 properties, NMR spectrum      
  Ute Becker             : All parallelization in ORCA, NUMFREQ, NUMCALC 
  Giovanni Bistoni       : ED, misc. LED, open-shell LED, HFLD           
  Dmytro Bykov           : pre 5.0 version of the SCF Hessian            
  Marcos Casanova-Páez   : Triplet and SCS-CIS(D). UHF-(DLPNO)-IP/EA/STEOM-CCSD. UHF-CVS-IP/STEOM-CCSD   
  Vijay G. Chilkuri      : MRCI spin determinant printing, contributions to CSF-ICE 
  Pauline Colinet        : FMM embedding                                 
  Dipayan Datta          : RHF DLPNO-CCSD density                        
  Achintya Kumar Dutta   : EOM-CC, STEOM-CC                              
  Nicolas Foglia         : Exact transition moments, OPA infrastructure, MCD improvements    
  Dmitry Ganyushin       : Spin-Orbit,Spin-Spin,Magnetic field MRCI      
  Miquel Garcia-Rates    : C-PCM and meta-GGA Hessian, CCSD/C-PCM, Gaussian charge scheme 
  Tiago L. C. Gouveia    : GS-ROHF, GS-ROCIS                             
  Yang Guo               : DLPNO-NEVPT2, F12-NEVPT2, CIM, IAO-localization        
  Andreas Hansen         : Spin unrestricted coupled pair/coupled cluster methods 
  Ingolf Harden          : AUTO-CI MPn and infrastructure                
  Benjamin Helmich-Paris : MC-RPA, TRAH-(SCF,CASSCF), AVAS, COSX integrals, SCF dyn. polar., MC-PDFT, srDFT 
  Lee Huntington         : MR-EOM, pCC                                   
  Robert Izsak           : Overlap fitted RIJCOSX, COSX-SCS-MP3, EOM     
  Riya Kayal             : Wick's Theorem for AUTO-CI, AUTO-CI UHF-CCSDT 
  Emily Kempfer          : AUTO-CI RHF CISDT and CCSDT, approximate NEVPT4
  Christian Kollmar      : KDIIS, OOCD, Brueckner-CCSD(T), CCSD density, CASPT2, CASPT2-K, improved NEVPT2 
  Axel Koslowski         : Symmetry handling                             
  Simone Kossmann        : meta-GGA functionals, TD-DFT gradient, OOMP2, (MP2 Hessian; deprecated post 5.0) 
  Lucas Lang             : DCDCAS, Hyperfine gauge corrections, ICE-SOC+SSC
  Marvin Lechner         : AUTO-CI (C++ implementation), FIC-MRCC        
  Spencer Leger          : CASSCF response                               
  Dagmar Lenk            : GEPOL surface, SMD, ORCA-2-JSON               
  Dimitrios Liakos       : Extrapolation schemes; Compound Job, Property file
  Dimitrios Manganas     : Further ROCIS development; embedding schemes. LFT, Crystal Embedding 
  Dimitrios Pantazis     : SARC Basis sets                               
  Anastasios Papadopoulos: AUTO-CI, single reference methods and gradients 
  Taras Petrenko         : pre 6.0 DFT Hessian and TD-DFT gradient,  ECA, NRVS 
  Petra Pikulova         : Analytic Raman intensities                    
  Peter Pinski           : DLPNO-MP2, DLPNO-MP2 Gradient                 
  Shashank Vittal Rao    : ES-AILFT, MagRelax                            
  Christoph Reimann      : Effective Core Potentials                     
  Marius Retegan         : Local ZFS, SOC                                
  Christoph Riplinger    : Optimizer, TS searches, QM/MM, DLPNO-CCSD(T), (RO)-DLPNO pert. Triples 
  Michael Roemelt        : Original ROCIS implementation, recursive CI coupling coefficients
  Masaaki Saitow         : Open-shell DLPNO-CCSD energy and density      
  Barbara Sandhoefer     : DKH picture change effects                    
  Yorick L. A. Schmerwitz: GMF and freeze-and-release deltaSCF, NEB S-IDPP initial path                    
  Kantharuban Sivalingam : CASSCF convergence/infrastructure, NEVPT2, NEVPT3, NEVPT4(SD), FIC-MRCI and CEPA variants
  Bernardo de Souza      : ESD, SOC TD-DFT                               
  Georgi L. Stoychev     : AutoAux, RI-MP2 NMR, DLPNO-MP2 response, X2C  
  Van Anh Tran           : RI-MP2 g-tensors                              
  Willem Van den Heuvel  : Paramagnetic NMR                              
  Zikuan Wang            : NOTCH, Electric field optimization            
  Frank Wennmohs         : Technical directorship and infrastructure     
  Hang Xu                : AUTO-CI-Response properties                   
                                                                         
[FACCTs GmbH]                                                            
  Markus Bursch, Nicolas Foglia, Miquel Garcia-Rates, Ingolf Harden, Hagen Neugebauer, Anastasios Papadopoulos, 
  Christoph Riplinger, Bernardo de Souza, Georgi L. Stoychev                                                    
                                                                 
  APM, various basis sets, CI-OPT, improved COSX, DLPNO-Multilevel,           
  DOCKER, DRACO, updates on ESD, Fragmentator, GOAT, IRC, LR-CPCM, L-BFGS, MBIS, meta-GGA TD-DFT gradient, ML-optimized integration grids, 
  MM, NACMEs, nearIR, NEB, NEB-TS, NL-DFT gradient (VV10), 2- and 3-layer-ONIOM, interface openCOSMO-RS, QMMM,   
  Crystal-QMMM, RESP, rigid body optimization, SF, symmetry and pop. for TD-DFT, various functionals, SOLVATOR                                   
                                                                         
[Other institutions]                                                     
  V. Asgeirsson          : NEB                                           
  Christoph Bannwarth    : sTDA-DFT, sTD-DFT, PBEh-3c, B97-3c, D3        
  Giovanni Bistoni       : ETS/NOCV, ADLD/ADEX, COVALED                  
  Martin Brehm           : Molecular dynamics                            
  Ronald Cardenas        : ETS/NOCV                                      
  Martina Colucci        : COVALED                                       
  Sebastian Ehlert       : rSCAN, r2SCAN, r2SCAN-3c, D4, dhf basis sets  
  Marvin Friede          : D4 for Fr, Ra, Ac-Lr                          
  Lars Goerigk           : TD-DFT with DH, B97 family of functionals     
  Stefan Grimme          : VdW corrections, initial TS optimization, DFT functionals, gCP, sTDA/sTD-DF 
  Waldemar Hujo          : DFT-NL                                        
  H. Jonsson             : NEB                                           
  Holger Kruse           : gCP                                           
  Marcel Mueller         : wB97X-3c, vDZP basis set                      
  Hagen Neugebauer       : wr2SCAN, Native XTB                           
  Gianluca Regni         : ADLD/ADEX                                     
  Tobias Risthaus        : pre 6.0 range-separated hybrid DFT and stability analysis
  Lukas Wittmann         : regularized MP2, r2SCAN double-hybrids, wr2SCAN        
                                                                         
We gratefully acknowledge several colleagues who have allowed us to      
interface, adapt or use parts of their codes:                            
  Ed Valeev, F. Pavosevic, A. Kumar             : LibInt (2-el integral package), F12 methods 
  Garnet Chan, S. Sharma, J. Yang, R. Olivares  : DMRG                   
  Ulf Ekstrom                                   : XCFun DFT Library      
  Mihaly Kallay                                 : mrcc  (arbitrary order and MRCC methods)
  Frank Weinhold                                : gennbo (NPA and NBO analysis)           
  Simon Mueller                                 : openCOSMO-RS                            
  Christopher J. Cramer and Donald G. Truhlar   : smd solvation model                     
  S Lehtola, MJT Oliveira, MAL Marques          : LibXC Library                           
  Liviu Ungur et al                             : ANISO software                          


 Your calculation uses the libint2 library for the computation of 2-el integrals
 For citations please refer to: http://libint.valeyev.net

 Your ORCA version has been built with support for libXC version: 7.0.0
 For citations please refer to: https://libxc.gitlab.io

 This ORCA versions uses:
   CBLAS   interface :  Fast vector & matrix operations
   LAPACKE interface :  Fast linear algebra routines
   SCALAPACK package :  Parallel linear algebra routines
   Shared memory     :  Shared parallel matrices


  ***********************************
  * Starting time: Fri Nov 28 17:27:08 2025
  * Host name:     Grants-Air.localdomain
  * Process ID:    13023
  * Working dir.:  /Users/grantkruttschnitt/Documents/orcaProjects
  ***********************************

NOTE: MaxCore=16384 MB was set to SCF,MP2,MDCI,CIPSI,MRCI,RASCI and CIS
      => If you want to overwrite this, your respective input block should be placed after the MaxCore statement
Warning: RI is on but no J-basis has been assigned. Assigning Def2/J (nothing to worry about!)
================================================================================

----- Orbital basis set information -----
Your calculation utilizes the basis: def2-TZVP
   F. Weigend and R. Ahlrichs, Phys. Chem. Chem. Phys. 7, 3297 (2005).

----- AuxJ basis set information -----
Your calculation utilizes the auxiliary basis: def2/J
   H-Rn: F. Weigend, Phys. Chem. Chem. Phys. 8, 1057 (2006).
   Fr-Lr: K. Eichkorn, F. Weigend, O. Treutler, R. Ahlrichs; Theor. Chem. Acc. 97, 119 (1997).

================================================================================
                                        WARNINGS
                       Please study these warnings very carefully!
================================================================================


WARNING: Geometry Optimization
  ===> : Switching off AutoStart
         For restart on a previous wavefunction, please use MOREAD

================================================================================
                                       INPUT FILE
================================================================================
NAME = hydroxide.inp
|  1> # avogadro generated ORCA file
|  2> # hydroxide
|  3> # 
|  4> ! Opt revPBE def2-TZVP 
|  5> 
|  6> %maxcore 16384
|  7> 
|  8> %output
|  9>    print[p_mos] 1
| 10>    print[p_basis] 2
| 11> end
| 12> 
| 13> * xyz -1 1
| 14>    O     -1.630029   -0.261360    0.000000
| 15>    H     -0.065694   -0.174003    0.000025
| 16> *
| 17> 
| 18> 
| 19> 
| 20>                          ****END OF INPUT****
================================================================================

                       *****************************
                       * Geometry Optimization Run *
                       *****************************

Geometry optimization settings:
Update method            Update   .... BFGS
Choice of coordinates    CoordSys .... (2022) Redundant Internals
Initial Hessian          InHess   .... Almloef's Model
Max. no of cycles        MaxIter  .... 50

Convergence Tolerances:
Energy Change            TolE     ....  5.0000e-06 Eh
Max. Gradient            TolMAXG  ....  3.0000e-04 Eh/bohr
RMS Gradient             TolRMSG  ....  1.0000e-04 Eh/bohr
Max. Displacement        TolMAXD  ....  4.0000e-03 bohr
RMS Displacement         TolRMSD  ....  2.0000e-03 bohr
Strict Convergence                .... False

------------------------------------------------------------------------------
                        ORCA OPTIMIZATION COORDINATE SETUP
------------------------------------------------------------------------------

The optimization will be done in redundant internal coordinates (2022)
Making redundant internal coordinates   ...  (2022 redundants) done
Evaluating the initial hessian          ...  (Almloef) done
Evaluating the coordinates              ...  done
Calculating the B-matrix                .... done
Calculating the G-matrix                .... done
The number of degrees of freedom        ....    1

    -----------------------------------------------------------------
                    Redundant Internal Coordinates


    -----------------------------------------------------------------
         Definition                    Initial Value    Approx d2E/dq
    -----------------------------------------------------------------
      1. B(H   1,O   0)                  1.5668         0.055963   
    -----------------------------------------------------------------

Number of atoms                         .... 2
Number of degrees of freedom            .... 1


         *************************************************************
         *                GEOMETRY OPTIMIZATION CYCLE   1            *
         *************************************************************
---------------------------------
CARTESIAN COORDINATES (ANGSTROEM)
---------------------------------
  O     -1.630029   -0.261360    0.000000
  H     -0.065694   -0.174003    0.000025

----------------------------
CARTESIAN COORDINATES (A.U.)
----------------------------
  NO LB      ZA    FRAG     MASS         X           Y           Z
   0 O     8.0000    0    15.999   -3.080308   -0.493899    0.000000
   1 H     1.0000    0     1.008   -0.124144   -0.328818    0.000047

--------------------------------
INTERNAL COORDINATES (ANGSTROEM)
--------------------------------
 O      0   0   0     0.000000000000     0.00000000     0.00000000
 H      1   0   0     1.566772235617     0.00000000     0.00000000

---------------------------
INTERNAL COORDINATES (A.U.)
---------------------------
 O      0   0   0     0.000000000000     0.00000000     0.00000000
 H      1   0   0     2.960770439547     0.00000000     0.00000000

---------------------
BASIS SET INFORMATION
---------------------
There are 2 groups of distinct atoms

 Group   1 Type O   : 11s6p2d1f contracted to 5s3p2d1f pattern {62111/411/11/1}
 Group   2 Type H   : 5s1p contracted to 3s1p pattern {311/1}

Atom   0O    basis set group =>   1
Atom   1H    basis set group =>   2

-------------------------
BASIS SET IN INPUT FORMAT
-------------------------

 # Basis set for element : H 
 NewGTO H 
 S 3 
   1      34.0613410000      0.0254393072
   2       5.1235746000      0.1900859489
   3       1.1646626000      0.8524411301
 S 1 
   1       0.3272304100      1.0000000000
 S 1 
   1       0.1030724100      1.0000000000
 P 1 
   1       0.8000000000      1.0000000000
  end;

 # Basis set for element : O 
 NewGTO O 
 S 6 
   1   27032.3826310000      0.0005722733
   2    4052.3871392000      0.0044353233
   3     922.3272271000      0.0230201076
   4     261.2407098900      0.0928224906
   5      85.3546413510      0.2937850002
   6      31.0350352450      0.6740160450
 S 2 
   1      12.2608607280      0.6383993702
   2       4.9987076005      0.3953458713
 S 1 
   1       1.1703108158      1.0000000000
 S 1 
   1       0.4647474099      1.0000000000
 S 1 
   1       0.1850453636      1.0000000000
 P 4 
   1      63.2749548010      0.0120183321
   2      14.6270493790      0.0830054217
   3       4.4501223456      0.3199174393
   4       1.5275799647      0.7071554292
 P 1 
   1       0.5293511794      1.0000000000
 P 1 
   1       0.1747842127      1.0000000000
 D 1 
   1       2.3140000000      1.0000000000
 D 1 
   1       0.6450000000      1.0000000000
 F 1 
   1       1.4280000000      1.0000000000
  end;

---------------------------------
AUXILIARY/J BASIS SET INFORMATION
---------------------------------
There are 2 groups of distinct atoms

 Group   1 Type O   : 12s5p4d2f1g contracted to 6s4p3d1f1g pattern {711111/2111/211/2/1}
 Group   2 Type H   : 5s2p1d contracted to 3s1p1d pattern {311/2/1}

Atom   0O    basis set group =>   1
Atom   1H    basis set group =>   2

-------------------------------------
AUXILIARY/J BASIS SET IN INPUT FORMAT
-------------------------------------

 # Auxiliary/J basis set for element : H 
 NewAuxJGTO H 
 S 3 
   1      15.6752927000      0.1007184237
   2       3.6063578000      0.3404257499
   3       1.2080016000      0.6491996172
 S 1 
   1       0.4726794000      1.0000000000
 S 1 
   1       0.2018100000      1.0000000000
 P 2 
   1       2.0281365000      0.5596620919
   2       0.5358730000      0.5596620919
 D 1 
   1       2.2165124000      1.0000000000
  end;

 # Auxiliary/J basis set for element : O 
 NewAuxJGTO O 
 S 7 
   1    2876.8216605000      0.0168151159
   2    1004.7443032000      0.0340137548
   3     369.7579954000      0.1194951309
   4     142.9442404000      0.2664627624
   5      57.8366425000      0.4202764046
   6      24.3864983000      0.2765077335
   7      10.6622662000      0.0057008815
 S 1 
   1       4.8070437000     -1.0000000000
 S 1 
   1       2.2210770000      1.0000000000
 S 1 
   1       1.0447795000      1.0000000000
 S 1 
   1       0.4968425000      1.0000000000
 S 1 
   1       0.2371384000      1.0000000000
 P 2 
   1      64.2613382000     -0.2731534179
   2      16.3006076000     -0.8168011598
 P 1 
   1       4.3550542000      1.0000000000
 P 1 
   1       1.2019554000      1.0000000000
 P 1 
   1       0.3354196000      1.0000000000
 D 2 
   1       9.2146611000     -0.4661230638
   2       2.8435251000     -0.6600908911
 D 1 
   1       0.9955759000     -1.0000000000
 D 1 
   1       0.3649441000     -1.0000000000
 F 2 
   1       2.6420115000      0.5931563945
   2       0.7345613000      0.5931563945
 G 1 
   1       1.3931000000     -1.0000000000
  end;

------------------------------------------------------------------------------
                             ORCA STARTUP CALCULATIONS
                           -- RI-GTO INTEGRALS CHOSEN --
------------------------------------------------------------------------------
------------------------------------------------------------------------------
                   ___                                                        
                  /   \      - P O W E R E D   B Y -                         
                 /     \                                                     
                 |  |  |   _    _      __       _____    __    __             
                 |  |  |  | |  | |    /  \     |  _  \  |  |  /  |          
                  \  \/   | |  | |   /    \    | | | |  |  | /  /          
                 / \  \   | |__| |  /  /\  \   | |_| |  |  |/  /          
                |  |  |   |  __  | /  /__\  \  |    /   |      \           
                |  |  |   | |  | | |   __   |  |    \   |  |\   \          
                \     /   | |  | | |  |  |  |  | |\  \  |  | \   \       
                 \___/    |_|  |_| |__|  |__|  |_| \__\ |__|  \__/        
                                                                              
                      - O R C A' S   B I G   F R I E N D -                    
                                      &                                       
                       - I N T E G R A L  F E E D E R -                       
                                                                              
 v1 FN, 2020, v2 2021, v3 2022-2024                                           
------------------------------------------------------------------------------


----------------------
SHARK INTEGRAL PACKAGE
----------------------

Number of atoms                             ...      2
Number of basis functions                   ...     37
Number of shells                            ...     15
Maximum angular momentum                    ...      3
Integral batch strategy                     ... SHARK/LIBINT Hybrid
RI-J (if used) integral strategy            ... SPLIT-RIJ (Revised 2003 algorithm where possible)
Printlevel                                  ...      1
Contraction scheme used                     ... SEGMENTED contraction
Prescreening option                         ... SCHWARTZ
   Thresh                                   ... 2.500e-11
   Tcut                                     ... 2.500e-12
   Tpresel                                  ... 2.500e-12 
Coulomb Range Separation                    ... NOT USED
Exchange Range Separation                   ... NOT USED
Multipole approximations                    ... NOT USED
Finite Nucleus Model                        ... NOT USED
CABS basis                                  ... NOT available
Auxiliary Coulomb fitting basis             ... AVAILABLE
   # of basis functions in Aux-J            ...     60
   # of shells in Aux-J                     ...     20
   Maximum angular momentum in Aux-J        ...      4
Auxiliary J/K fitting basis                 ... NOT available
Auxiliary Correlation fitting basis         ... NOT available
Auxiliary 'external' fitting basis          ... NOT available

Checking pre-screening integrals            ... done (  0.0 sec) Dimension = 15
   => SHARK Basis and OBASIS are compatible. Storing Pre-screening
Shell pair information
Shell pair cut-off parameter TPreSel        ...   2.5e-12
Total number of shell pairs                 ...       120
Shell pairs after pre-screening             ...       120
Total number of primitive shell pairs       ...       376
Primitive shell pairs kept                  ...       356
          la=0 lb=0:     36 shell pairs
          la=1 lb=0:     32 shell pairs
          la=1 lb=1:     10 shell pairs
          la=2 lb=0:     16 shell pairs
          la=2 lb=1:      8 shell pairs
          la=2 lb=2:      3 shell pairs
          la=3 lb=0:      8 shell pairs
          la=3 lb=1:      4 shell pairs
          la=3 lb=2:      2 shell pairs
          la=3 lb=3:      1 shell pairs

Checking whether 4 symmetric matrices of dimension 37 fit in memory
:Max Core in MB      =  16384.00
 MB in use           =      3.25
 MB left             =  16380.75
 MB needed           =      0.02
 Data fit in memory  = YES
Calculating RI/J V-Matrix + Cholesky decomp.... done (  0.0 sec)
Calculating Nuclear repulsion               ... done (  0.0 sec) ENN=      2.701999416484 Eh

Diagonalization of the overlap matrix:
Smallest eigenvalue                        ... 2.436e-02
Time for diagonalization                   ...    0.004 sec
Threshold for overlap eigenvalues          ... 1.000e-07
Number of eigenvalues below threshold      ... 0
Time for construction of square roots      ...    0.000 sec
Total time needed                          ...    0.005 sec

-------------------
DFT GRID GENERATION
-------------------

General Integration Accuracy     IntAcc      ... 4.388
Radial Grid Type                 RadialGrid  ... OptM3 with GC (2021)
Angular Grid (max. ang.)         AngularGrid ... 4 (Lebedev-302)
Angular grid pruning method      GridPruning ... 4 (adaptive)
Weight generation scheme         WeightScheme... mBecke (2022)
Basis function cutoff            BFCut       ... 1.0000e-11
Integration weight cutoff        WCut        ... 1.0000e-14
Partially contracted basis set               ... off
Rotationally invariant grid construction     ... off
Angular grids for H and He will be reduced by one unit

Total number of grid points                  ...     9462
Total number of batches                      ...      149
Average number of points per batch           ...       63
Average number of grid points per atom       ...     4731
Grids setup in   0.0 sec
Initializing property integral containers    ... done (  0.0 sec)

SHARK setup successfully completed in   0.1 seconds

Maximum memory used throughout the entire STARTUP-calculation: 13.8 MB
-------------------------------------------------------------------------------
                                 ORCA GUESS
                   Start orbitals & Density for SCF / CASSCF
-------------------------------------------------------------------------------

------------
SCF SETTINGS
------------
Hamiltonian:
 Density Functional     Method          .... DFT(GTOs)
 Exchange Functional    Exchange        .... PBE
   PBE kappa parameter   XKappa         ....  1.245000
   PBE mue parameter    XMuePBE         ....  0.219520
 Correlation Functional Correlation     .... PBE
   PBE beta parameter  CBetaPBE         ....  0.066725
 LDA part of GGA corr.  LDAOpt          .... PW91-LDA
 Gradients option       PostSCFGGA      .... off
   NL short-range parameter             ....  3.700000
 RI-approximation to the Coulomb term is turned on
   Number of AuxJ basis functions       .... 60


General Settings:
 Integral files         IntName         .... hydroxide
 Hartree-Fock type      HFTyp           .... RHF
 Total Charge           Charge          ....   -1
 Multiplicity           Mult            ....    1
 Number of Electrons    NEL             ....   10
 Basis Dimension        Dim             ....   37
 Nuclear Repulsion      ENuc            ....      2.7019994165 Eh

Convergence Acceleration:
 AO-DIIS                CNVDIIS         .... on
   Start iteration      DIISMaxIt       ....    12
   Startup error        DIISStart       ....  0.200000
   # of expansion vecs  DIISMaxEq       ....     5
   Bias factor          DIISBfac        ....   1.050
   Max. coefficient     DIISMaxC        ....  10.000
 MO-DIIS                CNVKDIIS        .... off
 Trust-Rad. Augm. Hess. CNVTRAH         .... auto
   Auto Start mean grad. ratio tolernc. ....  1.125000
   Auto Start start iteration           ....    50
   Auto Start num. interpolation iter.  ....    10
   Max. Number of Micro iterations      ....    24
   Max. Number of Macro iterations      .... Maxiter - #DIIS iter
   Number of Davidson start vectors     ....     2
   Converg. threshold    (grad. norm)   ....   1.000e-05
   Grad. Scal. Fac. for Micro threshold ....   0.100
   Minimum threshold for Micro iter.    ....   1.000e-02
   NR start threshold (gradient norm)   ....   1.000e-04
   Initial trust radius                 ....   0.400
   Minimum AH scaling param. (alpha)    ....   1.000
   Maximum AH scaling param. (alpha)    .... 1000.000
   Quad. conv. algorithm                .... NR
   White noise on init. David. guess    .... on
   Maximum white noise                  ....   0.010
   Pseudo random numbers                .... off
   Inactive MOs                         .... canonical
   Orbital update algorithm             .... Taylor
   Preconditioner                       .... Diag
   Full preconditioner red. dimension   ....   250
 SOSCF                 CNVSOSCF           .... on
   Start iteration     SOSCFMaxIt         ....   150
   Startup grad/error  SOSCFStart         ....  0.003300
   Hessian update      SOSCFHessUp        .... L-BFGS
   Autom. constraints  SOSCFAutoConstrain .... off
 Level Shifting         CNVShift        .... on
   Level shift para.    LevelShift      ....    0.2500
   Turn off err/grad.   ShiftErr        ....    0.0010
 Zerner damping         CNVZerner       .... off
 Static damping         CNVDamp         .... on
   Fraction old density DampFac         ....    0.7000
   Max. Damping (<1)    DampMax         ....    0.9800
   Min. Damping (>=0)   DampMin         ....    0.0000
   Turn off err/grad.   DampErr         ....    0.1000

SCF Procedure:
 Maximum # iterations   MaxIter         ....   125
 SCF integral mode      SCFMode         .... Direct
   Integral package                     .... SHARK and LIBINT hybrid scheme
 Reset frequency        DirectResetFreq ....    20
 Integral Threshold     Thresh          ....  2.500e-11 Eh
 Primitive CutOff       TCut            ....  2.500e-12 Eh

Convergence Tolerance:
 Convergence Check Mode ConvCheckMode   .... Total+1el-Energy
 Convergence forced     ConvForced      .... 0
 Energy Change          TolE            ....  1.000e-08 Eh
 1-El. energy change                    ....  1.000e-05 Eh
 Orbital Gradient       TolG            ....  1.000e-05
 Orbital Rotation angle TolX            ....  1.000e-05
 DIIS Error             TolErr          ....  5.000e-07

------------------------------
INITIAL GUESS: MODEL POTENTIAL
------------------------------
Loading Hartree-Fock densities                     ... done
Calculating cut-offs                               ... done
Initializing the effective Hamiltonian             ... done
Setting up the integral package (SHARK)            ... done
Starting the Coulomb interaction                   ... done (   0.0 sec)
Making the grid                                    ... done (   0.0 sec)
Mapping shells                                     ... done
Starting the XC term evaluation                    ... done (   0.0 sec)
  promolecular density results
     # of electrons  =      8.999624172
     EX              =     -8.352394767
     EC              =     -0.269226101
     EX+EC           =     -8.621620868
Transforming the Hamiltonian                       ... done (   0.0 sec)
Diagonalizing the Hamiltonian                      ... done (   0.0 sec)
Back transforming the eigenvectors                 ... done (   0.0 sec)
Now organizing SCF variables                       ... done
                      ------------------
                      INITIAL GUESS DONE (   0.0 sec)
                      ------------------
             **** ENERGY FILE WAS UPDATED (hydroxide.en.tmp) ****
Finished Guess after   0.1 sec
Maximum memory used throughout the entire GUESS-calculation: 6.9 MB

-------------------------------------------------------------------------------------------
                                      ORCA LEAN-SCF
                              memory conserving SCF solver
-------------------------------------------------------------------------------------------

----------------------------------------D-I-I-S--------------------------------------------
Iteration    Energy (Eh)           Delta-E    RMSDP     MaxDP     DIISErr   Damp  Time(sec)
-------------------------------------------------------------------------------------------
               ***  Starting incremental Fock matrix formation  ***
    1    -75.3495345997683046     0.00e+00  1.95e-02  2.12e-01  6.26e-01  0.700   0.0
Warning: op=0 Small HOMO/LUMO gap (   0.006) - skipping pre-diagonalization
         Will do a full diagonalization
    2    -75.5590736151531956    -2.10e-01  8.90e-03  1.18e-01  1.52e-01  0.700   0.0
                               ***Turning on AO-DIIS***
    3    -75.5916794821011280    -3.26e-02  4.11e-03  6.33e-02  8.41e-02  0.700   0.0
    4    -75.6107507871879818    -1.91e-02  7.63e-03  8.22e-02  1.15e-01  0.000   0.0
    5    -75.6791800609045566    -6.84e-02  8.83e-04  1.38e-02  1.35e-01  0.700   0.1
    6    -75.6829108158142247    -3.73e-03  1.12e-03  1.85e-02  1.19e-01  0.700   0.0
    7    -75.6868247392067275    -3.91e-03  1.33e-03  2.15e-02  9.97e-02  0.700   0.0
    8    -75.6908409052549871    -4.02e-03  3.75e-03  6.21e-02  7.08e-02  0.000   0.0
    9    -75.6958366136693286    -5.00e-03  3.33e-04  4.59e-03  6.09e-03  0.000   0.0
                              *** Initializing SOSCF ***
---------------------------------------S-O-S-C-F--------------------------------------
Iteration    Energy (Eh)           Delta-E    RMSDP     MaxDP     MaxGrad    Time(sec)
--------------------------------------------------------------------------------------
   10    -75.6958695225693532    -3.29e-05  1.17e-04  1.73e-03  2.42e-03     0.0
               *** Restarting incremental Fock matrix formation ***
   11    -75.6958738750234232    -4.35e-06  2.07e-04  1.86e-03  6.38e-04     0.0
   12    -75.6958587096518301     1.52e-05  1.66e-04  1.96e-03  2.16e-03     0.0
   13    -75.6958755042317932    -1.68e-05  4.63e-06  4.19e-05  2.11e-05     0.0
   14    -75.6958755079760124    -3.74e-09  1.28e-06  1.21e-05  1.08e-05     0.1
                 **** Energy Check signals convergence ****

               *****************************************************
               *                     SUCCESS                       *
               *           SCF CONVERGED AFTER  14 CYCLES          *
               *****************************************************

             **** ENERGY FILE WAS UPDATED (hydroxide.en.tmp) ****

----------------
TOTAL SCF ENERGY
----------------

Total Energy       :        -75.69587550882420 Eh           -2059.78949 eV

Components:
Nuclear Repulsion  :          2.70199941648441 Eh              73.52514 eV
Electronic Energy  :        -78.39787492530861 Eh           -2133.31463 eV
One Electron Energy:       -113.11579046401638 Eh           -3078.03714 eV
Two Electron Energy:         34.71791553870777 Eh             944.72251 eV

Virial components:
Potential Energy   :       -151.03502489800468 Eh           -4109.87197 eV
Kinetic Energy     :         75.33914938918046 Eh            2050.08248 eV
Virial Ratio       :          2.00473493691575

DFT components:
N(Alpha)           :        5.000008364721 electrons
N(Beta)            :        5.000008364721 electrons
N(Total)           :       10.000016729442 electrons
E(X)               :       -8.684421894073 Eh       
E(C)               :       -0.303336754356 Eh       
E(XC)              :       -8.987758648429 Eh       

---------------
SCF CONVERGENCE
---------------

  Last Energy change         ...    3.7442e-09  Tolerance :   1.0000e-08
  Last MAX-Density change    ...    1.2099e-05  Tolerance :   1.0000e-07
  Last RMS-Density change    ...    1.2784e-06  Tolerance :   5.0000e-09
  Last DIIS Error            ...    2.4162e-03  Tolerance :   5.0000e-07
  Last Orbital Gradient      ...    1.0753e-05  Tolerance :   1.0000e-05
  Last Orbital Rotation      ...    1.1209e-05  Tolerance :   1.0000e-05


----------------
ORBITAL ENERGIES
----------------

  NO   OCC          E(Eh)            E(eV) 
   0   2.0000     -18.411209      -500.9945 
   1   2.0000      -0.429548       -11.6886 
   2   2.0000       0.002814         0.0766 
   3   2.0000       0.119136         3.2419 
   4   2.0000       0.119137         3.2419 
   5   0.0000       0.176817         4.8114 
   6   0.0000       0.481664        13.1067 
   7   0.0000       0.661419        17.9981 
   8   0.0000       0.702988        19.1293 
   9   0.0000       0.702988        19.1293 
  10   0.0000       0.798595        21.7309 
  11   0.0000       1.538662        41.8691 
  12   0.0000       1.538663        41.8691 
  13   0.0000       1.580212        42.9997 
  14   0.0000       1.788282        48.6616 
  15   0.0000       1.788282        48.6616 
*Only the first 10 virtual orbitals were printed.
------------------
MOLECULAR ORBITALS (RHF, ROHF)
------------------
                      0         1         2         3         4         5   
                 -18.41121  -0.42955   0.00281   0.11914   0.11914   0.17682
                   2.00000   2.00000   2.00000   2.00000   2.00000   0.00000
                  --------  --------  --------  --------  --------  --------
  0O   1s        -0.435928  0.106372  0.018548  0.000000  0.000000  0.016013
  0O   2s        -0.638903  0.249906  0.045350  0.000000  0.000000  0.039353
  0O   3s        -0.033102 -0.377544 -0.086878  0.000000 -0.000000 -0.081772
  0O   4s         0.017564 -0.467957 -0.031899 -0.000000 -0.000000 -0.015261
  0O   5s        -0.006325 -0.272426 -0.212972 -0.000000 -0.000000 -0.319694
  0O   1pz       -0.000000 -0.000000  0.000005  0.000026 -0.469005 -0.000006
  0O   1px       -0.000682 -0.018456  0.299400  0.026149  0.000009 -0.369653
  0O   1py       -0.000038 -0.001031  0.016719 -0.468275 -0.000025 -0.020642
  0O   2pz        0.000000 -0.000000  0.000004  0.000019 -0.345235 -0.000004
  0O   2px        0.000716 -0.019548  0.246802  0.019248  0.000007 -0.263160
  0O   2py        0.000040 -0.001092  0.013782 -0.344697 -0.000019 -0.014695
  0O   3pz       -0.000000  0.000000  0.000002  0.000023 -0.414840 -0.000008
  0O   3px       -0.000694  0.000351  0.154800  0.023130  0.000008 -0.469957
  0O   3py       -0.000039  0.000020  0.008644 -0.414195 -0.000023 -0.026243
  0O   1dz2       0.000067  0.001244 -0.000990  0.000000 -0.000000 -0.000525
  0O   1dxz      -0.000000 -0.000000  0.000000  0.000000 -0.001130  0.000000
  0O   1dyz      -0.000000 -0.000000  0.000000 -0.000000 -0.000063  0.000000
  0O   1dx2y2    -0.000115 -0.002142  0.001704  0.000126  0.000000  0.000904
  0O   1dxy      -0.000013 -0.000240  0.000191 -0.001124 -0.000000  0.000101
  0O   2dz2      -0.000049  0.005249 -0.003669 -0.000000 -0.000000  0.001166
  0O   2dxz       0.000000 -0.000000  0.000000  0.000000 -0.005146 -0.000000
  0O   2dyz       0.000000 -0.000000  0.000000 -0.000000 -0.000288 -0.000000
  0O   2dx2y2     0.000084 -0.009034  0.006316  0.000574  0.000000 -0.002007
  0O   2dxy       0.000009 -0.001012  0.000708 -0.005122 -0.000000 -0.000225
  0O   1f0       -0.000000  0.000000 -0.000000 -0.000000  0.002248  0.000000
  0O   1f+1      -0.000021  0.000293 -0.002287 -0.000051 -0.000000  0.001263
  0O   1f-1      -0.000001  0.000016 -0.000128  0.000916  0.000000  0.000071
  0O   1f+2       0.000000 -0.000000  0.000000  0.000000 -0.002884 -0.000000
  0O   1f-2       0.000000 -0.000000  0.000000 -0.000000 -0.000323 -0.000000
  0O   1f+3      -0.000027  0.000373 -0.002916 -0.000592 -0.000000  0.001611
  0O   1f-3      -0.000004  0.000063 -0.000493  0.003505  0.000000  0.000272
  1H   1s         0.000227 -0.029862  0.166776  0.000000  0.000000  0.125881
  1H   2s        -0.000427 -0.037986  0.267096 -0.000000 -0.000000  0.151063
  1H   3s         0.001128 -0.018640  0.372571  0.000001  0.000000  0.856601
  1H   1pz        0.000000  0.000000 -0.000000  0.000001 -0.012145  0.000000
  1H   1px        0.000271  0.007988 -0.004089  0.000677  0.000000  0.022179
  1H   1py        0.000015  0.000446 -0.000228 -0.012126 -0.000001  0.001239
                      6         7         8         9        10        11   
                   0.48166   0.66142   0.70299   0.70299   0.79860   1.53866
                   0.00000   0.00000   0.00000   0.00000   0.00000   0.00000
                  --------  --------  --------  --------  --------  --------
  0O   1s         0.002709 -0.050908 -0.000000  0.000000  0.031834  0.000000
  0O   2s         0.004952 -0.105001 -0.000001  0.000000  0.063238  0.000000
  0O   3s         0.012667 -0.074305 -0.000001  0.000000  0.098807 -0.000000
  0O   4s        -0.126188  1.609352  0.000013 -0.000000 -1.350972  0.000000
  0O   5s         0.457368 -1.799342 -0.000016  0.000000  1.763798 -0.000000
  0O   1pz       -0.000002 -0.000003  0.000028  0.335564 -0.000004 -0.003938
  0O   1px       -0.140330 -0.172365  0.018710 -0.000007 -0.233436  0.000000
  0O   1py       -0.007837 -0.009623 -0.335042  0.000028 -0.013037  0.000000
  0O   2pz       -0.000003 -0.000006  0.000062  0.726977 -0.000010 -0.077216
  0O   2px       -0.181654 -0.397763  0.040534 -0.000015 -0.635018  0.000001
  0O   2py       -0.010145 -0.022208 -0.725845  0.000061 -0.035463  0.000000
  0O   3pz        0.000003  0.000010 -0.000102 -1.207549  0.000024  0.197550
  0O   3px        0.200892  0.627389 -0.067330  0.000025  1.504233 -0.000003
  0O   3py        0.011219  0.035029  1.205670 -0.000101  0.084005 -0.000000
  0O   1dz2      -0.001641 -0.000026  0.000000  0.000000  0.004076  0.000000
  0O   1dxz       0.000000  0.000000  0.000000  0.001699 -0.000000  0.014563
  0O   1dyz       0.000000  0.000000 -0.000000  0.000095 -0.000000  0.000813
  0O   1dx2y2     0.002824  0.000045  0.000190 -0.000000 -0.007016 -0.000000
  0O   1dxy       0.000316  0.000005 -0.001691  0.000000 -0.000786 -0.000000
  0O   2dz2      -0.010831  0.001243  0.000000 -0.000000  0.012906 -0.000016
  0O   2dxz       0.000001 -0.000000 -0.000000 -0.004157 -0.000001 -0.591414
  0O   2dyz       0.000000 -0.000000  0.000000 -0.000232 -0.000000 -0.033026
  0O   2dx2y2     0.018644 -0.002140 -0.000464  0.000000 -0.022216  0.000009
  0O   2dxy       0.002089 -0.000240  0.004138 -0.000000 -0.002489  0.000001
  0O   1f0        0.000000  0.000000 -0.000000 -0.000824  0.000000  0.010495
  0O   1f+1       0.000497  0.000717 -0.000019  0.000000  0.000521 -0.000001
  0O   1f-1       0.000028  0.000040  0.000336 -0.000000  0.000029 -0.000000
  0O   1f+2      -0.000000 -0.000000  0.000000  0.001057 -0.000000 -0.013465
  0O   1f-2      -0.000000 -0.000000 -0.000000  0.000118 -0.000000 -0.001508
  0O   1f+3       0.000633  0.000915 -0.000217  0.000000  0.000664 -0.000000
  0O   1f-3       0.000107  0.000155  0.001284 -0.000000  0.000112 -0.000000
  1H   1s         0.155189 -0.008734 -0.000000  0.000000  0.026768 -0.000000
  1H   2s         1.307929 -0.168607  0.000000 -0.000000 -0.592844 -0.000000
  1H   3s        -1.626982  0.323708  0.000005 -0.000000 -0.484662  0.000000
  1H   1pz        0.000000  0.000000 -0.000003 -0.038119  0.000001 -0.753885
  1H   1px        0.025256  0.026685 -0.002125  0.000001  0.049387  0.000012
  1H   1py        0.001411  0.001490  0.038059 -0.000003  0.002758  0.000001
                     12        13        14        15        16        17   
                   1.53866   1.58021   1.78828   1.78828   1.93853   1.93853
                   0.00000   0.00000   0.00000   0.00000   0.00000   0.00000
                  --------  --------  --------  --------  --------  --------
  0O   1s        -0.000000  0.010365  0.000000 -0.000000  0.000000 -0.000000
  0O   2s        -0.000000  0.032111  0.000000 -0.000000  0.000000 -0.000000
  0O   3s         0.000000 -0.178575 -0.000000  0.000003 -0.000000  0.000002
  0O   4s        -0.000001  0.342964  0.000000 -0.000003  0.000000 -0.000003
  0O   5s         0.000002 -0.444576 -0.000000  0.000001 -0.000000  0.000002
  0O   1pz        0.000000 -0.000003 -0.000001  0.000000 -0.017077  0.000001
  0O   1px       -0.000219 -0.162041 -0.000000  0.000001  0.000000 -0.000952
  0O   1py        0.003932 -0.009049  0.000000 -0.000002  0.000001  0.017050
  0O   2pz        0.000000  0.000001  0.000001 -0.000000 -0.048925  0.000002
  0O   2px       -0.004305  0.082261  0.000000 -0.000001  0.000001 -0.002729
  0O   2py        0.077096  0.004594 -0.000000  0.000002  0.000002  0.048850
  0O   3pz       -0.000000 -0.000003 -0.000000 -0.000000  0.154769 -0.000007
  0O   3px        0.011015 -0.177921 -0.000000  0.000000 -0.000002  0.008630
  0O   3py       -0.197242 -0.009937 -0.000000  0.000000 -0.000007 -0.154528
  0O   1dz2      -0.000000 -0.001437 -0.000001  0.008258  0.000000  0.000000
  0O   1dxz       0.000000  0.000000 -0.000531 -0.000000  0.005427 -0.000000
  0O   1dyz      -0.000000  0.000000  0.009520  0.000002  0.000303 -0.000000
  0O   1dx2y2     0.001624  0.002474 -0.000001  0.004738 -0.000000  0.000605
  0O   1dxy      -0.014495  0.000277 -0.000000  0.000531 -0.000000 -0.005402
  0O   2dz2      -0.000000 -0.306575  0.000155 -0.870221  0.000023 -0.000004
  0O   2dxz      -0.000000  0.000017  0.056026  0.000026  0.815183 -0.000036
  0O   2dyz       0.000009  0.000001 -1.003280 -0.000178  0.045523 -0.000015
  0O   2dx2y2    -0.065954  0.527701  0.000087 -0.499297 -0.000009  0.090901
  0O   2dxy       0.588652  0.059125  0.000026 -0.055937 -0.000038 -0.811377
  0O   1f0       -0.000000 -0.000000  0.000000 -0.000000  0.009873 -0.000000
  0O   1f+1       0.000239 -0.006987  0.000000 -0.001423 -0.000001  0.000225
  0O   1f-1      -0.004278 -0.000390 -0.000000 -0.000078 -0.000000 -0.004024
  0O   1f+2      -0.000000  0.000000  0.000201  0.000000 -0.012666  0.000001
  0O   1f-2       0.000000  0.000000 -0.001790 -0.000000 -0.001419  0.000000
  0O   1f+3       0.002764 -0.008908 -0.000000  0.001088 -0.000000  0.002600
  0O   1f-3      -0.016362 -0.001505 -0.000000  0.000183 -0.000001 -0.015392
  1H   1s        -0.000000  0.046420  0.000000 -0.000000 -0.000000  0.000000
  1H   2s         0.000001 -0.298061 -0.000000 -0.000000  0.000000 -0.000001
  1H   3s        -0.000002  0.422472  0.000000 -0.000000 -0.000000 -0.000000
  1H   1pz        0.000000 -0.000011 -0.000001  0.000000 -0.681931  0.000030
  1H   1px       -0.042030 -0.659394 -0.000000  0.000001  0.000009 -0.038021
  1H   1py        0.752712 -0.036818  0.000000 -0.000005  0.000031  0.680871
                     18        19        20        21        22        23   
                   2.30837   2.56266   2.80064   2.80064   2.87995   3.18790
                   0.00000   0.00000   0.00000   0.00000   0.00000   0.00000
                  --------  --------  --------  --------  --------  --------
  0O   1s         0.004767 -0.025481  0.000000  0.000000  0.108199 -0.075923
  0O   2s         0.008121 -0.083125  0.000000  0.000000  0.364699 -0.255074
  0O   3s         0.058662  0.512850 -0.000000 -0.000002 -2.340872  1.698733
  0O   4s        -0.496907 -0.844352  0.000000  0.000003  3.181998 -2.212269
  0O   5s         0.795538  0.701897 -0.000000 -0.000002 -1.524350  0.820199
  0O   1pz        0.000004  0.000009  1.202570  0.000037  0.000011  0.000013
  0O   1px        0.272661  0.547175 -0.000017 -0.067050  0.668700  0.800316
  0O   1py        0.015227  0.030558 -0.000038  1.200699  0.037341  0.044691
  0O   2pz       -0.000007 -0.000011 -1.611359 -0.000050 -0.000014 -0.000019
  0O   2px       -0.462940 -0.672236  0.000023  0.089842 -0.878830 -1.209340
  0O   2py       -0.025853 -0.037542  0.000051 -1.608853 -0.049075 -0.067531
  0O   3pz        0.000010  0.000012  0.717721  0.000022  0.000003  0.000006
  0O   3px        0.641209  0.752018 -0.000010 -0.040018  0.189216  0.351925
  0O   3py        0.035808  0.041996 -0.000023  0.716605  0.010566  0.019652
  0O   1dz2      -0.011033 -0.000475  0.000000  0.000001  0.006755  0.010887
  0O   1dxz       0.000001  0.000000  0.003164  0.000000 -0.000000 -0.000001
  0O   1dyz       0.000000  0.000000  0.000177  0.000000 -0.000000 -0.000000
  0O   1dx2y2     0.018991  0.000818 -0.000000 -0.000352 -0.011629 -0.018739
  0O   1dxy       0.002128  0.000092 -0.000000  0.003150 -0.001302 -0.002100
  0O   2dz2      -0.340456 -0.257577  0.000000 -0.000001  0.093541  0.178464
  0O   2dxz       0.000019  0.000014  0.008458  0.000000 -0.000005 -0.000010
  0O   2dyz       0.000001  0.000001  0.000472  0.000000 -0.000000 -0.000001
  0O   2dx2y2     0.586023  0.443363 -0.000000 -0.000946 -0.161011 -0.307187
  0O   2dxy       0.065656  0.049673 -0.000000  0.008418 -0.018040 -0.034415
  0O   1f0        0.000001  0.000000  0.002616  0.000000 -0.000000 -0.000001
  0O   1f+1       0.026391  0.010050 -0.000000 -0.000060 -0.011625 -0.034345
  0O   1f-1       0.001473  0.000560 -0.000000  0.001068 -0.000647 -0.001920
  0O   1f+2      -0.000001 -0.000001 -0.003359 -0.000000  0.000001  0.000002
  0O   1f-2      -0.000000 -0.000000 -0.000376 -0.000000  0.000000  0.000000
  0O   1f+3       0.033647  0.012813 -0.000000 -0.000689 -0.014821 -0.043788
  0O   1f-3       0.005685  0.002165 -0.000000  0.004081 -0.002505 -0.007396
  1H   1s        -0.856021  1.204136 -0.000000 -0.000002 -0.053984 -0.557766
  1H   2s         0.681734 -1.797049  0.000000  0.000004  0.177564  0.951224
  1H   3s        -0.707126  0.411193 -0.000000 -0.000001  0.128996 -0.480234
  1H   1pz        0.000011  0.000006 -0.020997 -0.000001 -0.000004 -0.000009
  1H   1px        0.680410  0.381614  0.000000  0.001168 -0.245232 -0.590844
  1H   1py        0.037996  0.021310  0.000001 -0.020964 -0.013694 -0.032994
                     24        25        26        27        28        29   
                   5.38912   5.38913   5.38928   5.38928   5.41397   5.41399
                   0.00000   0.00000   0.00000   0.00000   0.00000   0.00000
                  --------  --------  --------  --------  --------  --------
  0O   1s        -0.000000  0.000000 -0.000000 -0.000000  0.000000  0.000001
  0O   2s        -0.000000  0.000000 -0.000000 -0.000000  0.000000  0.000001
  0O   3s         0.000000 -0.000001  0.000003  0.000000 -0.000000 -0.000010
  0O   4s         0.000000 -0.000002 -0.000003 -0.000000  0.000000  0.000010
  0O   5s        -0.000000  0.000005  0.000000 -0.000000 -0.000000  0.000002
  0O   1pz        0.000041  0.000000  0.000000  0.003258  0.000001  0.000000
  0O   1px       -0.000000  0.000002 -0.000181 -0.000000 -0.000000 -0.000003
  0O   1py        0.000000 -0.000063  0.003252 -0.000000 -0.000000  0.000001
  0O   2pz       -0.000192 -0.000000 -0.000001 -0.015263  0.000001  0.000000
  0O   2px        0.000000 -0.000015  0.000850  0.000000  0.000000  0.000005
  0O   2py       -0.000000  0.000298 -0.015237  0.000001  0.000000 -0.000002
  0O   3pz        0.000223  0.000000  0.000001  0.017741 -0.000002 -0.000000
  0O   3px       -0.000000  0.000023 -0.000990 -0.000000  0.000000  0.000005
  0O   3py        0.000000 -0.000346  0.017711 -0.000001 -0.000000  0.000002
  0O   1dz2      -0.000000  0.005189  0.000109  0.000001  0.000000 -0.000019
  0O   1dxz       0.000639  0.000000  0.000001  0.024053 -0.000003 -0.000000
  0O   1dyz      -0.005967 -0.000000  0.000000  0.001421  0.000012  0.000000
  0O   1dx2y2    -0.000000  0.003033 -0.002617 -0.000000  0.000000 -0.000013
  0O   1dxy       0.000000 -0.000138  0.023950 -0.000001  0.000000 -0.000002
  0O   2dz2       0.000000 -0.004180 -0.000085 -0.000000 -0.000000  0.000006
  0O   2dxz      -0.000325  0.000000 -0.000000 -0.004316 -0.000000 -0.000000
  0O   2dyz       0.004815  0.000000 -0.000000 -0.000303 -0.000006 -0.000000
  0O   2dx2y2     0.000000 -0.002405  0.000431  0.000000 -0.000000  0.000011
  0O   2dxy      -0.000000 -0.000183 -0.004305  0.000000 -0.000000  0.000002
  0O   1f0       -0.007575  0.000026 -0.000032 -0.612385  0.790679  0.000264
  0O   1f+1      -0.000012  0.788897  0.029426  0.000036 -0.000033  0.053785
  0O   1f-1      -0.000027  0.048754 -0.248742  0.000016  0.000322 -0.966762
  0O   1f+2       0.121311  0.000000  0.000038  0.784558  0.608406  0.000201
  0O   1f-2      -0.992571 -0.000018  0.000034  0.100553  0.068324  0.000042
  0O   1f+3       0.000015 -0.606888  0.149468  0.000012  0.000026 -0.041540
  0O   1f-3      -0.000021 -0.083200 -0.956858  0.000054 -0.000080  0.246482
  1H   1s        -0.000000  0.000002 -0.000001 -0.000000  0.000000  0.000004
  1H   2s         0.000000 -0.000008  0.000002  0.000000 -0.000000 -0.000015
  1H   3s        -0.000000  0.000001 -0.000001 -0.000000  0.000000  0.000003
  1H   1pz       -0.000821 -0.000001 -0.000003 -0.065255  0.000012  0.000000
  1H   1px        0.000000 -0.000065  0.003636  0.000001 -0.000000  0.000012
  1H   1py       -0.000000  0.001278 -0.065147  0.000003 -0.000000 -0.000002
                     30        31        32        33        34        35   
                   5.49325   6.44966   6.44967   6.45250   6.45253   6.72197
                   0.00000   0.00000   0.00000   0.00000   0.00000   0.00000
                  --------  --------  --------  --------  --------  --------
  0O   1s        -0.002940 -0.000000  0.000000 -0.000000  0.000000  0.000849
  0O   2s        -0.007677 -0.000000  0.000000 -0.000001  0.000000  0.001921
  0O   3s         0.048147  0.000001 -0.000000  0.000003 -0.000000  0.002929
  0O   4s         0.013585  0.000001 -0.000000  0.000003 -0.000000 -0.153643
  0O   5s        -0.132231 -0.000006  0.000000 -0.000011  0.000000  0.302832
  0O   1pz        0.000001 -0.000000  0.005197  0.000000  0.000005 -0.000001
  0O   1px        0.051658  0.000291 -0.000000  0.000003 -0.000000 -0.046129
  0O   1py        0.002884 -0.005189 -0.000000 -0.000021  0.000000 -0.002575
  0O   2pz       -0.000001  0.000000 -0.010400 -0.000000 -0.000010  0.000001
  0O   2px       -0.068431 -0.000581  0.000000 -0.000004  0.000000  0.045853
  0O   2py       -0.003821  0.010384  0.000000  0.000042 -0.000000  0.002560
  0O   3pz       -0.000002 -0.000001  0.016734  0.000000  0.000016  0.000004
  0O   3px       -0.108894  0.000928 -0.000000 -0.000006  0.000000  0.241759
  0O   3py       -0.006081 -0.016709 -0.000001 -0.000071  0.000000  0.013501
  0O   1dz2       0.088412  0.004302 -0.000030 -1.007910  0.000018  0.591008
  0O   1dxz      -0.000005  0.000041 -1.163614  0.000015 -0.066014 -0.000033
  0O   1dyz      -0.000000  0.000021 -0.066105  0.000022  1.161944 -0.000002
  0O   1dx2y2    -0.152171 -0.127266  0.000015 -0.578801  0.000012 -1.017386
  0O   1dxy      -0.017049  1.158513  0.000044 -0.059826 -0.000018 -0.113958
  0O   2dz2       0.014227 -0.002169  0.000016  0.508585 -0.000009 -0.390920
  0O   2dxz      -0.000001 -0.000021  0.598792 -0.000008  0.033321  0.000022
  0O   2dyz      -0.000000 -0.000011  0.034006 -0.000011 -0.586306  0.000001
  0O   2dx2y2    -0.024494  0.065513 -0.000008  0.292056 -0.000006  0.672932
  0O   2dxy      -0.002744 -0.596164 -0.000023  0.030137  0.000009  0.075379
  0O   1f0        0.000024  0.000001 -0.013981  0.000000 -0.000020 -0.000004
  0O   1f+1       0.607674 -0.000331  0.000001  0.004059 -0.000000 -0.112639
  0O   1f-1       0.033892  0.005697  0.000000  0.000267 -0.000000 -0.006283
  0O   1f+2      -0.000031 -0.000001  0.017940  0.000000  0.000582  0.000006
  0O   1f-2      -0.000003 -0.000001  0.002013 -0.000000 -0.005102  0.000001
  0O   1f+3       0.774697 -0.003667  0.000000 -0.003105  0.000000 -0.143604
  0O   1f-3       0.130890  0.021803  0.000001 -0.000442 -0.000000 -0.024264
  1H   1s        -0.073319 -0.000002  0.000000 -0.000004  0.000000  0.088839
  1H   2s         0.246378  0.000009 -0.000000  0.000018 -0.000000 -0.425404
  1H   3s        -0.035377 -0.000001  0.000000 -0.000001  0.000000  0.025835
  1H   1pz       -0.000003  0.000003 -0.073603 -0.000000 -0.000071  0.000005
  1H   1px       -0.215134 -0.004110  0.000001 -0.000030  0.000000  0.300028
  1H   1py       -0.012013  0.073488  0.000003  0.000313 -0.000000  0.016756
                     36   
                  42.79621
                   0.00000
                  --------
  0O   1s        -1.386056
  0O   2s         1.672850
  0O   3s        -1.362317
  0O   4s         1.184682
  0O   5s        -0.471213
  0O   1pz       -0.000000
  0O   1px       -0.010890
  0O   1py       -0.000608
  0O   2pz        0.000001
  0O   2px        0.032299
  0O   2py        0.001804
  0O   3pz       -0.000001
  0O   3px       -0.044473
  0O   3py       -0.002483
  0O   1dz2       0.000730
  0O   1dxz      -0.000000
  0O   1dyz      -0.000000
  0O   1dx2y2    -0.001256
  0O   1dxy      -0.000141
  0O   2dz2      -0.002589
  0O   2dxz       0.000000
  0O   2dyz       0.000000
  0O   2dx2y2     0.004455
  0O   2dxy       0.000499
  0O   1f0       -0.000000
  0O   1f+1      -0.001615
  0O   1f-1      -0.000090
  0O   1f+2       0.000000
  0O   1f-2       0.000000
  0O   1f+3      -0.002058
  0O   1f-3      -0.000348
  1H   1s         0.019975
  1H   2s        -0.034244
  1H   3s         0.085049
  1H   1pz        0.000000
  1H   1px        0.019458
  1H   1py        0.001087



                    ********************************
                    * MULLIKEN POPULATION ANALYSIS *
                    ********************************

-----------------------
MULLIKEN ATOMIC CHARGES
-----------------------
   0 O :   -0.869941
   1 H :   -0.130059
Sum of atomic charges:   -1.0000000

--------------------------------
MULLIKEN REDUCED ORBITAL CHARGES
--------------------------------
  0 O s       :     3.965080  s :     3.965080
      pz      :     1.997534  p :     4.902217
      px      :     0.910538
      py      :     1.994145
      dz2     :     0.000565  d :     0.002426
      dxz     :     0.000082
      dyz     :     0.000000
      dx2y2   :     0.001676
      dxy     :     0.000102
      f0      :     0.000011  f :     0.000219
      f+1     :     0.000059
      f-1     :     0.000002
      f+2     :     0.000019
      f-2     :     0.000000
      f+3     :     0.000096
      f-3     :     0.000031

  1 H s       :     1.122332  s :     1.122332
      pz      :     0.002353  p :     0.007727
      px      :     0.003018
      py      :     0.002355



                     *******************************
                     * LOEWDIN POPULATION ANALYSIS *
                     *******************************

----------------------
LOEWDIN ATOMIC CHARGES
----------------------
   0 O :   -0.942164
   1 H :   -0.057836

-------------------------------
LOEWDIN REDUCED ORBITAL CHARGES
-------------------------------
  0 O s       :     3.955476  s :     3.955476
      pz      :     1.995327  p :     4.980870
      px      :     0.993341
      py      :     1.992202
      dz2     :     0.001351  d :     0.005533
      dxz     :     0.000064
      dyz     :     0.000000
      dx2y2   :     0.004004
      dxy     :     0.000114
      f0      :     0.000010  f :     0.000285
      f+1     :     0.000087
      f-1     :     0.000002
      f+2     :     0.000016
      f-2     :     0.000000
      f+3     :     0.000142
      f-3     :     0.000028

  1 H s       :     1.039708  s :     1.039708
      pz      :     0.004583  p :     0.018128
      px      :     0.008948
      py      :     0.004597



                      *****************************
                      * MAYER POPULATION ANALYSIS *
                      *****************************

  NA   - Mulliken gross atomic population
  ZA   - Total nuclear charge
  QA   - Mulliken gross atomic charge
  VA   - Mayer's total valence
  BVA  - Mayer's bonded valence
  FA   - Mayer's free valence

  ATOM       NA         ZA         QA         VA         BVA        FA
  0 O      8.8699     8.0000    -0.8699     0.9778     0.9778     0.0000
  1 H      1.1301     1.0000    -0.1301     0.9778     0.9778     0.0000

  Mayer bond orders larger than 0.100000
B(  0-O ,  1-H ) :   0.9778 

-------
TIMINGS
-------

Total SCF time: 0 days 0 hours 0 min 0 sec 

Total time                  ....       0.692 sec
Sum of individual times     ....       0.604 sec  ( 87.2%)

SCF preparation             ....       0.026 sec  (  3.8%)
Fock matrix formation       ....       0.535 sec  ( 77.3%)
  Startup                   ....       0.002 sec  (  0.4% of F)
  Split-RI-J                ....       0.051 sec  (  9.5% of F)
  XC integration            ....       0.491 sec  ( 91.7% of F)
    Basis function eval.    ....       0.146 sec  ( 29.8% of XC)
    Density eval.           ....       0.053 sec  ( 10.9% of XC)
    XC-Functional eval.     ....       0.045 sec  (  9.1% of XC)
    XC-Potential eval.      ....       0.062 sec  ( 12.7% of XC)
Diagonalization             ....       0.000 sec  (  0.0%)
Density matrix formation    ....       0.011 sec  (  1.6%)
Total Energy calculation    ....       0.002 sec  (  0.3%)
Population analysis         ....       0.003 sec  (  0.4%)
Orbital Transformation      ....       0.002 sec  (  0.3%)
Orbital Orthonormalization  ....       0.000 sec  (  0.0%)
DIIS solution               ....       0.017 sec  (  2.5%)
SOSCF solution              ....       0.008 sec  (  1.2%)
Finished LeanSCF after   0.7 sec

Maximum memory used throughout the entire LEANSCF-calculation: 4.7 MB

-------------------------   --------------------
FINAL SINGLE POINT ENERGY       -75.695875508824
-------------------------   --------------------

------------------------------------------------------------------------------
                         ORCA SCF GRADIENT CALCULATION
------------------------------------------------------------------------------

Nuc. rep. gradient        (SHARK) ... done (  0.0 sec)
HCore & Overlap gradient  (SHARK) ... done (  0.0 sec)
Split-RIJ-J gradient      (SHARK) ... done (  0.1 sec)
XC gradient                       ... done (  0.1 sec)

------------------
CARTESIAN GRADIENT
------------------

   1   O   :   -0.081071496   -0.004523889   -0.000001293
   2   H   :    0.081071496    0.004523889    0.000001293

Difference to translation invariance:
           :   -0.0000000000    0.0000000000   -0.0000000000

Difference to rotation invariance:
           :   -0.0000000002    0.0000000064   -0.0000099867

Norm of the Cartesian gradient     ...    0.1148307713
RMS gradient                       ...    0.0468794661
MAX gradient                       ...    0.0810714959

-------
TIMINGS
-------

Total SCF gradient time     ....        0.148 sec

Densities                   ....       0.000 sec  (  0.0%)
One electron gradient       ....       0.002 sec  (  1.2%)
RI-J Coulomb gradient       ....       0.065 sec  ( 43.6%)
XC gradient                 ....       0.082 sec  ( 55.1%)

Maximum memory used throughout the entire SCFGRAD-calculation: 7.0 MB
------------------------------------------------------------------------------
                         ORCA GEOMETRY RELAXATION STEP
------------------------------------------------------------------------------

Reading the OPT-File                    .... done
Getting information on internals        .... done
Copying old internal coords+grads       .... done
Making the new internal coordinates     .... (2022 redundants) done
Validating the new internal coordinates .... (2022 redundants) done
Calculating the B-matrix                .... done
Calculating the G,G- and P matrices     .... done
Transforming gradient to internals      .... done
Projecting the internal gradient        .... done
Number of atoms                         ....   2
Number of internal coordinates          ....   1
Current Energy                          ....   -75.695875509 Eh
Current gradient norm                   ....     0.114830771 Eh/bohr
Maximum allowed component of the step   ....  0.300
Current trust radius                    ....  0.300
Evaluating the initial hessian          ....  (Almloef) done
Projecting the Hessian                  .... done
Forming the augmented Hessian           .... done
Diagonalizing the augmented Hessian     .... done
Last element of RFO vector              ....  0.814188641
Lowest eigenvalues of augmented Hessian:
 -0.057902271
Length of the computed step             ....  0.713103080
Warning: the length of the step is outside the trust region - taking restricted step instead
The input lambda is                     ....     0.054963
   iter:   5  x=    0.048371  g=101657.586599 f(x)=   257.207381
   iter:  10  x=   -0.001012  g=  235.853737 f(x)=     4.419247
   iter:  15  x=   -0.202488  g=    1.200977 f(x)=     0.043464
   iter:  20  x=   -0.214696  g=    0.665044 f(x)=     0.000000
The output lambda is                    ....    -0.214696 (20 iterations)
The final length of the internal step   ....  0.300000000
Converting the step to Cartesian space:
 Initial RMS(Int)=    0.3000000000
Transforming coordinates:
 Iter   0:  RMS(Cart)=    0.0866025404 RMS(Int)=    0.3000000000
done
Storing new coordinates                 .... done

                                .--------------------.
          ----------------------|Geometry convergence|-------------------------
          Item                value                   Tolerance       Converged
          ---------------------------------------------------------------------
          RMS gradient        0.0811976170            0.0001000000      NO
          MAX gradient        0.0811976170            0.0003000000      NO
          RMS step            0.3000000000            0.0020000000      NO
          MAX step            0.3000000000            0.0040000000      NO
          -------------------------------------------------------------------------
          ........................................................
          Max(Bonds)      0.1588      Max(Angles)    0.00
          Max(Dihed)        0.00      Max(Improp)    0.00
          ---------------------------------------------------------------------

The optimization has not yet converged - more geometry cycles are needed


    ---------------------------------------------------------------------------
                         Redundant Internal Coordinates
                            (Angstroem and degrees)

        Definition                    Value    dE/dq     Step     New-Value
    ----------------------------------------------------------------------------
     1. B(H   1,O   0)                1.5668  0.081198 -0.1588    1.4080   
    ----------------------------------------------------------------------------

Geometry step timings:
Preparation and reading OPT file:      0.000 s ( 1.994 %)
Internal coordinates            :      0.000 s (17.160 %)
B/P matrices and projection     :      0.000 s ( 4.955 %)
Hessian update/contruction      :      0.000 s (24.290 %)
Making the step                 :      0.000 s (16.133 %)
Converting the step to Cartesian:      0.000 s ( 1.873 %)
Storing new data                :      0.000 s ( 5.619 %)
Checking convergence            :      0.000 s ( 4.955 %)
Final printing                  :      0.000 s (23.021 %)
Total time                      :      0.002 s

Time for energy+gradient        :      1.376 s
Time for complete geometry iter :      1.464 s

         *************************************************************
         *                GEOMETRY OPTIMIZATION CYCLE   2            *
         *************************************************************
---------------------------------
CARTESIAN COORDINATES (ANGSTROEM)
---------------------------------
  O     -1.550776   -0.256934    0.000001
  H     -0.144947   -0.178429    0.000024

----------------------------
CARTESIAN COORDINATES (A.U.)
----------------------------
  NO LB      ZA    FRAG     MASS         X           Y           Z
   0 O     8.0000    0    15.999   -2.930542   -0.485535    0.000002
   1 H     1.0000    0     1.008   -0.273910   -0.337181    0.000045

--------------------------------
INTERNAL COORDINATES (ANGSTROEM)
--------------------------------
 O      0   0   0     0.000000000000     0.00000000     0.00000000
 H      1   0   0     1.408019073127     0.00000000     0.00000000

---------------------------
INTERNAL COORDINATES (A.U.)
---------------------------
 O      0   0   0     0.000000000000     0.00000000     0.00000000
 H      1   0   0     2.660770439547     0.00000000     0.00000000

------------------------------------------------------------------------------
                   ___                                                        
                  /   \      - P O W E R E D   B Y -                         
                 /     \                                                     
                 |  |  |   _    _      __       _____    __    __             
                 |  |  |  | |  | |    /  \     |  _  \  |  |  /  |          
                  \  \/   | |  | |   /    \    | | | |  |  | /  /          
                 / \  \   | |__| |  /  /\  \   | |_| |  |  |/  /          
                |  |  |   |  __  | /  /__\  \  |    /   |      \           
                |  |  |   | |  | | |   __   |  |    \   |  |\   \          
                \     /   | |  | | |  |  |  |  | |\  \  |  | \   \       
                 \___/    |_|  |_| |__|  |__|  |_| \__\ |__|  \__/        
                                                                              
                      - O R C A' S   B I G   F R I E N D -                    
                                      &                                       
                       - I N T E G R A L  F E E D E R -                       
                                                                              
 v1 FN, 2020, v2 2021, v3 2022-2024                                           
------------------------------------------------------------------------------


----------------------
SHARK INTEGRAL PACKAGE
----------------------

Number of atoms                             ...      2
Number of basis functions                   ...     37
Number of shells                            ...     15
Maximum angular momentum                    ...      3
Integral batch strategy                     ... SHARK/LIBINT Hybrid
RI-J (if used) integral strategy            ... SPLIT-RIJ (Revised 2003 algorithm where possible)
Printlevel                                  ...      1
Contraction scheme used                     ... SEGMENTED contraction
Prescreening option                         ... SCHWARTZ
   Thresh                                   ... 2.500e-11
   Tcut                                     ... 2.500e-12
   Tpresel                                  ... 2.500e-12 
Coulomb Range Separation                    ... NOT USED
Exchange Range Separation                   ... NOT USED
Multipole approximations                    ... NOT USED
Finite Nucleus Model                        ... NOT USED
CABS basis                                  ... NOT available
Auxiliary Coulomb fitting basis             ... AVAILABLE
   # of basis functions in Aux-J            ...     60
   # of shells in Aux-J                     ...     20
   Maximum angular momentum in Aux-J        ...      4
Auxiliary J/K fitting basis                 ... NOT available
Auxiliary Correlation fitting basis         ... NOT available
Auxiliary 'external' fitting basis          ... NOT available

Checking pre-screening integrals            ... done (  0.0 sec) Dimension = 15
   => SHARK Basis and OBASIS are compatible. Storing Pre-screening
Shell pair information
Shell pair cut-off parameter TPreSel        ...   2.5e-12
Total number of shell pairs                 ...       120
Shell pairs after pre-screening             ...       120
Total number of primitive shell pairs       ...       376
Primitive shell pairs kept                  ...       359
          la=0 lb=0:     36 shell pairs
          la=1 lb=0:     32 shell pairs
          la=1 lb=1:     10 shell pairs
          la=2 lb=0:     16 shell pairs
          la=2 lb=1:      8 shell pairs
          la=2 lb=2:      3 shell pairs
          la=3 lb=0:      8 shell pairs
          la=3 lb=1:      4 shell pairs
          la=3 lb=2:      2 shell pairs
          la=3 lb=3:      1 shell pairs

Checking whether 4 symmetric matrices of dimension 37 fit in memory
:Max Core in MB      =  16384.00
 MB in use           =      3.26
 MB left             =  16380.74
 MB needed           =      0.02
 Data fit in memory  = YES
Calculating RI/J V-Matrix + Cholesky decomp.... done (  0.0 sec)
Calculating Nuclear repulsion               ... done (  0.0 sec) ENN=      3.006647954704 Eh

Diagonalization of the overlap matrix:
Smallest eigenvalue                        ... 2.312e-02
Time for diagonalization                   ...    0.000 sec
Threshold for overlap eigenvalues          ... 1.000e-07
Number of eigenvalues below threshold      ... 0
Time for construction of square roots      ...    0.001 sec
Total time needed                          ...    0.001 sec

-------------------
DFT GRID GENERATION
-------------------

General Integration Accuracy     IntAcc      ... 4.388
Radial Grid Type                 RadialGrid  ... OptM3 with GC (2021)
Angular Grid (max. ang.)         AngularGrid ... 4 (Lebedev-302)
Angular grid pruning method      GridPruning ... 4 (adaptive)
Weight generation scheme         WeightScheme... mBecke (2022)
Basis function cutoff            BFCut       ... 1.0000e-11
Integration weight cutoff        WCut        ... 1.0000e-14
Partially contracted basis set               ... off
Rotationally invariant grid construction     ... off
Angular grids for H and He will be reduced by one unit

Total number of grid points                  ...     9461
Total number of batches                      ...      149
Average number of points per batch           ...       63
Average number of grid points per atom       ...     4730
Grids setup in   0.0 sec
Initializing property integral containers    ... done (  0.0 sec)

SHARK setup successfully completed in   0.1 seconds

Maximum memory used throughout the entire STARTUP-calculation: 13.8 MB
Occupation numbers will be reassigned to an Aufbau configuration
             **** ENERGY FILE WAS UPDATED (hydroxide.en.tmp) ****
Finished Guess after   0.0 sec
Maximum memory used throughout the entire GUESS-calculation: 7.0 MB
----------------------------------------D-I-I-S--------------------------------------------
Iteration    Energy (Eh)           Delta-E    RMSDP     MaxDP     DIISErr   Damp  Time(sec)
-------------------------------------------------------------------------------------------
               ***  Starting incremental Fock matrix formation  ***
    1    -75.7198862404061259     0.00e+00  6.36e-04  8.35e-03  2.76e-02  0.700   0.0
Warning: op=0 Small HOMO/LUMO gap (   0.083) - skipping pre-diagonalization
         Will do a full diagonalization
    2    -75.7205260571688257    -6.40e-04  7.98e-04  1.24e-02  2.15e-02  0.700   0.0
                               ***Turning on AO-DIIS***
    3    -75.7209872417647745    -4.61e-04  6.03e-04  7.12e-03  1.57e-02  0.700   0.0
    4    -75.7212847905954618    -2.98e-04  1.27e-03  1.58e-02  1.09e-02  0.000   0.0
                              *** Initializing SOSCF ***
---------------------------------------S-O-S-C-F--------------------------------------
Iteration    Energy (Eh)           Delta-E    RMSDP     MaxDP     MaxGrad    Time(sec)
--------------------------------------------------------------------------------------
    5    -75.7219762508025411    -6.91e-04  1.18e-04  1.26e-03  2.20e-03     0.0
               *** Restarting incremental Fock matrix formation ***
    6    -75.7219799307990087    -3.68e-06  1.38e-04  1.57e-03  3.46e-04     0.0
    7    -75.7219749101629844     5.02e-06  1.05e-04  1.16e-03  1.13e-03     0.0
    8    -75.7219805370054786    -5.63e-06  5.15e-06  4.51e-05  2.19e-05     0.0
    9    -75.7219805396516676    -2.65e-09  1.89e-06  1.92e-05  1.20e-05     0.0
                 **** Energy Check signals convergence ****

               *****************************************************
               *                     SUCCESS                       *
               *           SCF CONVERGED AFTER   9 CYCLES          *
               *****************************************************

             **** ENERGY FILE WAS UPDATED (hydroxide.en.tmp) ****

----------------
TOTAL SCF ENERGY
----------------

Total Energy       :        -75.72198054059611 Eh           -2060.49984 eV

Components:
Nuclear Repulsion  :          3.00664795470380 Eh              81.81505 eV
Electronic Energy  :        -78.72862849529992 Eh           -2142.31489 eV
One Electron Energy:       -113.83484500500809 Eh           -3097.60361 eV
Two Electron Energy:         35.10621650970818 Eh             955.28872 eV

Virial components:
Potential Energy   :       -151.08889500471082 Eh           -4111.33785 eV
Kinetic Energy     :         75.36691446411473 Eh            2050.83801 eV
Virial Ratio       :          2.00471116641839

DFT components:
N(Alpha)           :        5.000005837807 electrons
N(Beta)            :        5.000005837807 electrons
N(Total)           :       10.000011675615 electrons
E(X)               :       -8.708434051939 Eh       
E(C)               :       -0.307061586642 Eh       
E(XC)              :       -9.015495638581 Eh       

---------------
SCF CONVERGENCE
---------------

  Last Energy change         ...    2.6462e-09  Tolerance :   1.0000e-08
  Last MAX-Density change    ...    1.9220e-05  Tolerance :   1.0000e-07
  Last RMS-Density change    ...    1.8923e-06  Tolerance :   5.0000e-09
  Last DIIS Error            ...    2.2047e-03  Tolerance :   5.0000e-07
  Last Orbital Gradient      ...    1.1964e-05  Tolerance :   1.0000e-05
  Last Orbital Rotation      ...    1.8552e-05  Tolerance :   1.0000e-05


Total SCF time: 0 days 0 hours 0 min 0 sec 
Finished LeanSCF after   0.4 sec

Maximum memory used throughout the entire LEANSCF-calculation: 4.7 MB

-------------------------   --------------------
FINAL SINGLE POINT ENERGY       -75.721980540596
-------------------------   --------------------

------------------------------------------------------------------------------
                         ORCA SCF GRADIENT CALCULATION
------------------------------------------------------------------------------

Nuc. rep. gradient        (SHARK) ... done (  0.0 sec)
HCore & Overlap gradient  (SHARK) ... done (  0.0 sec)
Split-RIJ-J gradient      (SHARK) ... done (  0.1 sec)
XC gradient                       ... done (  0.1 sec)

------------------
CARTESIAN GRADIENT
------------------

   1   O   :   -0.091893794   -0.005127143   -0.000001467
   2   H   :    0.091893794    0.005127143    0.000001467

Difference to translation invariance:
           :   -0.0000000000   -0.0000000000    0.0000000000

Difference to rotation invariance:
           :   -0.0000000001    0.0000000050   -0.0000118821

[...]
  0O   1f+2       0.000004 -0.000003 -0.008914 -0.000003 -0.000000 -0.000007
  0O   1f-2       0.000000 -0.000000 -0.000999 -0.000001 -0.000000 -0.000001
  0O   1f+3      -0.112810  0.073465  0.000001 -0.001830  0.004299  0.166540
  0O   1f-3      -0.019057  0.012411 -0.000004  0.010832  0.000726  0.028134
  1H   1s         0.815866  0.103469 -0.000000 -0.000000  0.300384 -1.106717
  1H   2s        -2.365918  1.792310 -0.000000 -0.000008  0.501202 -2.048179
  1H   3s         0.732559  0.224533  0.000000  0.000000  0.564423  0.524392
  1H   1pz        0.000021 -0.000022 -0.306419 -0.000116 -0.000008  0.000029
  1H   1px        1.291535 -1.407124 -0.000002  0.017091 -0.504717  1.821959
  1H   1py        0.072122 -0.078580  0.000116 -0.305942 -0.028184  0.101743
                     24        25        26        27        28        29   
                   5.41267   5.41268   5.44704   5.44704   5.66472   5.66472
                   0.00000   0.00000   0.00000   0.00000   0.00000   0.00000
                  --------  --------  --------  --------  --------  --------
  0O   1s         0.000000 -0.000000  0.000000 -0.000000  0.000000  0.000000
  0O   2s         0.000000 -0.000000  0.000000 -0.000000  0.000000  0.000000
  0O   3s        -0.000001  0.000000 -0.000000  0.000002 -0.000002 -0.000000
  0O   4s         0.000002 -0.000000  0.000000 -0.000003  0.000003  0.000000
  0O   5s        -0.000000  0.000000  0.000000 -0.000000 -0.000000 -0.000000
  0O   1pz        0.000000  0.000000  0.000000  0.000000 -0.000001  0.041270
  0O   1px       -0.000000  0.000000 -0.000000  0.000000 -0.002301 -0.000001
  0O   1py       -0.000000  0.000000 -0.000000  0.000000  0.041206  0.000001
  0O   2pz       -0.000000 -0.000000 -0.000001 -0.000000  0.000002 -0.103466
  0O   2px        0.000002 -0.000000  0.000000 -0.000002  0.005771  0.000002
  0O   2py        0.000000  0.000000  0.000000 -0.000000 -0.103305 -0.000002
  0O   3pz       -0.000000  0.000000 -0.000001 -0.000000  0.000001 -0.050136
  0O   3px       -0.000000  0.000000  0.000000 -0.000000  0.002795  0.000001
  0O   3py        0.000000  0.000000  0.000000 -0.000000 -0.050058 -0.000001
  0O   1dz2      -0.010842 -0.000000 -0.000000  0.000003 -0.000003 -0.000006
  0O   1dxz       0.000000  0.000698 -0.000001 -0.000000  0.000004 -0.227494
  0O   1dyz       0.000000 -0.012501 -0.000003 -0.000000 -0.000003 -0.012705
  0O   1dx2y2    -0.006221 -0.000000 -0.000000  0.000004  0.025366  0.000004
  0O   1dxy      -0.000697  0.000000 -0.000000  0.000001 -0.226431 -0.000003
  0O   2dz2       0.013351  0.000000  0.000000 -0.000001  0.000001 -0.000002
  0O   2dxz      -0.000000 -0.000860 -0.000001 -0.000000  0.000001 -0.063521
  0O   2dyz      -0.000000  0.015394  0.000001  0.000000 -0.000001 -0.003547
  0O   2dx2y2     0.007661  0.000000  0.000000 -0.000003  0.007086  0.000001
  0O   2dxy       0.000859 -0.000000  0.000000 -0.000001 -0.063225 -0.000001
  0O   1f0       -0.000031  0.000009 -0.790563 -0.000661 -0.000010  0.624933
  0O   1f+1      -0.789264 -0.000015  0.000061 -0.053956 -0.014230 -0.000045
  0O   1f-1      -0.044041 -0.000026 -0.000807  0.966741  0.254726  0.000002
  0O   1f+2       0.000006  0.111337 -0.608571 -0.000507  0.000016 -0.801753
  0O   1f-2       0.000021 -0.993684 -0.068194 -0.000076 -0.000024 -0.089826
  0O   1f+3       0.603759  0.000016 -0.000047  0.041622 -0.164589 -0.000018
  0O   1f-3       0.101981 -0.000017  0.000204 -0.246509  0.974290  0.000014
  1H   1s        -0.000001 -0.000000 -0.000000  0.000001 -0.000002 -0.000000
  1H   2s        -0.000001 -0.000000 -0.000000  0.000002 -0.000002 -0.000000
  1H   3s         0.000000 -0.000000  0.000000 -0.000000  0.000000  0.000000
  1H   1pz        0.000000 -0.000001  0.000004  0.000000 -0.000006  0.358527
  1H   1px        0.000001  0.000000  0.000000 -0.000001 -0.019989 -0.000006
  1H   1py       -0.000002 -0.000000 -0.000000  0.000001  0.357970  0.000006
                     30        31        32        33        34        35   
                   6.36547   6.49740   6.49741   6.61578   6.61578   7.18013
                   0.00000   0.00000   0.00000   0.00000   0.00000   0.00000
                  --------  --------  --------  --------  --------  --------
  0O   1s        -0.014700 -0.000000  0.000000 -0.000000 -0.000000  0.016838
  0O   2s        -0.050506 -0.000000  0.000000 -0.000000 -0.000000  0.057619
  0O   3s         0.688669  0.000005 -0.000000  0.000001  0.000000 -0.857766
  0O   4s        -1.589449 -0.000010  0.000000 -0.000003 -0.000000  1.902705
  0O   5s         0.229053 -0.000000 -0.000000  0.000001  0.000000  0.451166
  0O   1pz        0.000004  0.000000 -0.000000  0.000002  0.020455 -0.000005
  0O   1px        0.223605  0.000002 -0.000000 -0.001140 -0.000000 -0.315619
  0O   1py        0.012487 -0.000000 -0.000000  0.020423 -0.000002 -0.017625
  0O   2pz       -0.000019 -0.000000  0.000000 -0.000006 -0.076925  0.000028
  0O   2px       -1.211952 -0.000009  0.000000  0.004287  0.000001  1.731684
  0O   2py       -0.067679 -0.000000  0.000000 -0.076805  0.000006  0.096702
  0O   3pz        0.000002 -0.000000 -0.000000 -0.000003 -0.039005  0.000005
  0O   3px        0.143950 -0.000000 -0.000000  0.002175  0.000000  0.336200
  0O   3py        0.008039  0.000000 -0.000000 -0.038944  0.000003  0.018775
  0O   1dz2       0.405635 -1.007831 -0.000022 -0.000003  0.000032  0.453558
  0O   1dxz      -0.000022  0.000020 -0.064889  0.000092  1.156174 -0.000025
  0O   1dyz      -0.000001 -0.000025  1.161934  0.000024  0.064568 -0.000001
  0O   1dx2y2    -0.698203 -0.578255 -0.000011 -0.128932 -0.000008 -0.780706
  0O   1dxy      -0.078226 -0.064789 -0.000020  1.150775 -0.000094 -0.087467
  0O   2dz2       0.106397  0.506743  0.000011  0.000002 -0.000020 -0.789656
  0O   2dxz      -0.000006 -0.000010  0.032627 -0.000058 -0.725951  0.000044
  0O   2dyz      -0.000000  0.000013 -0.584224 -0.000015 -0.040541  0.000002
  0O   2dx2y2    -0.183144  0.290744  0.000005  0.080954  0.000005  1.359223
  0O   2dxy      -0.020517  0.032577  0.000010 -0.722561  0.000059  0.152281
  0O   1f0        0.000018  0.000000 -0.000001  0.000013  0.156969 -0.000021
  0O   1f+1       0.468039  0.008421  0.000000 -0.003573 -0.000011 -0.540335
  0O   1f-1       0.026137  0.000473 -0.000000  0.063982 -0.000006 -0.030172
  0O   1f+2      -0.000024 -0.000000  0.001186 -0.000015 -0.201385  0.000027
  0O   1f-2      -0.000003  0.000000 -0.010599 -0.000008 -0.022562  0.000003
  0O   1f+3       0.596723 -0.006434 -0.000000 -0.041340 -0.000001 -0.688896
  0O   1f-3       0.100807 -0.001092 -0.000000  0.244720 -0.000020 -0.116380
  1H   1s         0.763837  0.000006 -0.000000  0.000001  0.000000 -1.122929
  1H   2s         0.602202  0.000006 -0.000000  0.000001 -0.000000 -1.667469
  1H   3s        -0.139339 -0.000001  0.000000 -0.000000 -0.000000  0.135060
  1H   1pz       -0.000015  0.000000 -0.000000  0.000023  0.281215  0.000019
  1H   1px       -0.920426 -0.000006  0.000000 -0.015681 -0.000003  1.210714
  1H   1py       -0.051400 -0.000003 -0.000000  0.280777 -0.000023  0.067609
                     36   
                  43.10556
                   0.00000
                  --------
  0O   1s        -1.388424
  0O   2s         1.686793
  0O   3s        -1.497430
  0O   4s         1.531500
  0O   5s        -0.610309
  0O   1pz       -0.000001
  0O   1px       -0.041112
  0O   1py       -0.002296
  0O   2pz        0.000004
  0O   2px        0.245393
  0O   2py        0.013703
  0O   3pz       -0.000001
  0O   3px       -0.071226
  0O   3py       -0.003977
  0O   1dz2       0.006709
  0O   1dxz      -0.000000
  0O   1dyz      -0.000000
  0O   1dx2y2    -0.011548
  0O   1dxy      -0.001294
  0O   2dz2      -0.060785
  0O   2dxz       0.000003
  0O   2dyz       0.000000
  0O   2dx2y2     0.104628
  0O   2dxy       0.011722
  0O   1f0       -0.000001
  0O   1f+1      -0.025680
  0O   1f-1      -0.001434
  0O   1f+2       0.000001
  0O   1f-2       0.000000
  0O   1f+3      -0.032741
  0O   1f-3      -0.005531
  1H   1s        -0.102285
  1H   2s        -0.223759
  1H   3s         0.214841
  1H   1pz        0.000003
  1H   1px        0.157377
  1H   1py        0.008788



                    ********************************
                    * MULLIKEN POPULATION ANALYSIS *
                    ********************************

-----------------------
MULLIKEN ATOMIC CHARGES
-----------------------
   0 O :   -1.144795
   1 H :    0.144795
Sum of atomic charges:   -1.0000000

--------------------------------
MULLIKEN REDUCED ORBITAL CHARGES
--------------------------------
  0 O s       :     3.920917  s :     3.920917
      pz      :     1.980478  p :     5.212100
      px      :     1.253412
      py      :     1.978210
      dz2     :     0.002028  d :     0.010916
      dxz     :     0.001398
      dyz     :     0.000004
      dx2y2   :     0.006025
      dxy     :     0.001460
      f0      :     0.000032  f :     0.000863
      f+1     :     0.000258
      f-1     :     0.000006
      f+2     :     0.000053
      f-2     :     0.000001
      f+3     :     0.000422
      f-3     :     0.000091

  1 H s       :     0.805128  s :     0.805128
      pz      :     0.018034  p :     0.050077
      px      :     0.014022
      py      :     0.018021



                     *******************************
                     * LOEWDIN POPULATION ANALYSIS *
                     *******************************

----------------------
LOEWDIN ATOMIC CHARGES
----------------------
   0 O :   -1.030024
   1 H :    0.030024

-------------------------------
LOEWDIN REDUCED ORBITAL CHARGES
-------------------------------
  0 O s       :     3.713134  s :     3.713134
      pz      :     1.950581  p :     5.295845
      px      :     1.396410
      py      :     1.948853
      dz2     :     0.004648  d :     0.019486
      dxz     :     0.000445
      dyz     :     0.000001
      dx2y2   :     0.013777
      dxy     :     0.000614
      f0      :     0.000000  f :     0.001560
      f+1     :     0.000583
      f-1     :     0.000002
      f+2     :     0.000000
      f-2     :     0.000000
      f+3     :     0.000947
      f-3     :     0.000027

  1 H s       :     0.793911  s :     0.793911
      pz      :     0.048972  p :     0.176065
      px      :     0.078030
      py      :     0.049063



                      *****************************
                      * MAYER POPULATION ANALYSIS *
                      *****************************

  NA   - Mulliken gross atomic population
  ZA   - Total nuclear charge
  QA   - Mulliken gross atomic charge
  VA   - Mayer's total valence
  BVA  - Mayer's bonded valence
  FA   - Mayer's free valence

  ATOM       NA         ZA         QA         VA         BVA        FA
  0 O      9.1448     8.0000    -1.1448     0.9922     0.9922     0.0000
  1 H      0.8552     1.0000     0.1448     0.9922     0.9922    -0.0000

  Mayer bond orders larger than 0.100000
B(  0-O ,  1-H ) :   0.9922 

-------
TIMINGS
-------

Total SCF time: 0 days 0 hours 0 min 0 sec 

Total time                  ....       0.187 sec
Sum of individual times     ....       0.143 sec  ( 76.6%)

SCF preparation             ....       0.028 sec  ( 14.8%)
Fock matrix formation       ....       0.092 sec  ( 49.5%)
  Startup                   ....       0.001 sec  (  1.0% of F)
  Split-RI-J                ....       0.010 sec  ( 10.7% of F)
  XC integration            ....       0.108 sec  (117.1% of F)
    Basis function eval.    ....       0.038 sec  ( 35.5% of XC)
    Density eval.           ....       0.014 sec  ( 13.1% of XC)
    XC-Functional eval.     ....       0.012 sec  ( 11.0% of XC)
    XC-Potential eval.      ....       0.017 sec  ( 15.8% of XC)
Diagonalization             ....       0.000 sec  (  0.0%)
Density matrix formation    ....       0.002 sec  (  1.1%)
Total Energy calculation    ....       0.000 sec  (  0.2%)
Population analysis         ....       0.016 sec  (  8.7%)
Orbital Transformation      ....       0.001 sec  (  0.4%)
Orbital Orthonormalization  ....       0.000 sec  (  0.0%)
DIIS solution               ....       0.001 sec  (  0.5%)
SOSCF solution              ....       0.003 sec  (  1.4%)
Finished LeanSCF after   0.2 sec

Maximum memory used throughout the entire LEANSCF-calculation: 5.0 MB

-------------------------   --------------------
FINAL SINGLE POINT ENERGY       -75.782423296364
-------------------------   --------------------

                                *** OPTIMIZATION RUN DONE ***


------------------------------------------------------------------------------
                              ORCA PROPERTY CALCULATIONS
------------------------------------------------------------------------------

GBWName                                 ... hydroxide.gbw
Number of atoms                         ...      2
Number of basis functions               ...     37
Max core memory                         ...  16384 MB

Electric properties:
Dipole moment                           ... YES
Quadrupole moment                       ...  NO
Static polarizability (Dipole/Dipole)   ...  NO
Static polarizability (Dipole/Quad.)    ...  NO
Static polarizability (Quad./Quad.)     ...  NO
Static polarizability (Velocity)        ...  NO
Static hyperpolarizability              ...  NO

Atomic electric properties:
Dipole moment                           ...  NO
Quadrupole moment                       ...  NO
Static polarizability                   ...  NO

Choice of electric origin               ... Center of mass
Position of electric origin             ...    -2.417309    -0.456875     0.000011

General magnetic properties:
Magnetizability                         ...  NO

EPR properties:
g-Tensor (aka g-matrix)                 ...  NO
Zero-Field splitting spin-orbit         ...  NO
Zero-field splitting spin-spin          ...  NO
Hyperfine couplings                     ...  NO (   0 nuclei)
Quadrupole couplings                    ...  NO (   0 nuclei)
Contact density                         ...  NO (   0 nuclei)

NMR properties:
Chemical shifts                         ...  NO (   0 nuclei)
Spin-rotation constants                 ...  NO (   0 nuclei)
Spin-spin couplings                     ...  NO (   0 nuclei,    0 pairs)

Choice of magnetic origin               ... GIAO
Position of magnetic origin             ...     0.000000     0.000000     0.000000

Properties with geometric perturbations:
SCF Hessian                             ...  NO
IR spectrum                             ...  NO
VCD spectrum                            ...  NO
X-ray spectroscopy properties:
SCF XES/XAS/RIXS spectra                ...  NO

SCF SOC stabilization energy            ...  NO
Diagonal Born-Oppenheimer correction    ...  NO

-------------
DIPOLE MOMENT
-------------

Method             : SCF
Type of density    : Electron Density
Multiplicity       :   1
Irrep              :   0
Energy             :   -75.7824232963641577 Eh
Basis              : AO
                                X                 Y                 Z
Electronic contribution:     -0.402611813      -0.022482421      -0.000006434
Nuclear contribution   :      0.862875953       0.048185494       0.000013790
                        -----------------------------------------
Total Dipole Moment    :      0.460264140       0.025703073       0.000007356
                        -----------------------------------------
Magnitude (a.u.)       :      0.460981265
Magnitude (Debye)      :      1.171721258



--------------------
Rotational spectrum 
--------------------
 
Rotational constants in cm-1:             0.000000            18.503680            18.503680 
Rotational constants in MHz :             0.000000        554726.359441        554726.359441 

Dipole components along the rotational axes: 
x,y,z [a.u.] :     0.460981     0.000000    -0.000001 
x,y,z [Debye]:     1.171721     0.000000    -0.000001 

 

Dipole moment calculation done in   0.0 sec 

Maximum memory used throughout the entire PROP-calculation: 3.8 MB

--------------------------------
SUGGESTED CITATIONS FOR THIS RUN
--------------------------------

Below you find a list of papers that are relevant to this ORCA run
We neither can nor want to force you to cite these papers, but we appreciate if you do
You receive ORCA, which is the product of decades of hard work by many enthusiastic individuals, for free
The only thing we kindly ask in return is that you cite our papers,
We deeply appreciate it, if you show your appreciation for ORCA by not just citing the generic ORCA reference.

Please note that relegating all ORCA citations to the supporting information does *not* help us.
SI sections are not indexed - citations you put there will not count into any citation statistics
But we need these citations in order to attract the funding resources that allow us to do what we are doing

Therefore, if you are a happy ORCA user, please consider citing a few of the papers listed below in the main body of your paper

In addition to the list printed below, the program has created the file hydroxide.bibtex that contains the list in bibtex format
You can import this file easily into all common literature databanks and citation aid programs


List of essential papers. We consider these as the minimum necessary citations

  1. Neese, F.
     Software update: the ORCA program system, version 6.0
     WIRES Comput. Molec. Sci. 2025 15(1), e70019
     doi.org/10.1002/wcms.7019

List of papers to cite with high priority. The work reported in these papers was absolutely
necessary for this run to complete.
Our perspective: the developers of density functionals and basis sets usually get cited in chemistry papers
Good! But without the algorithms to do something with them, the functionals or basis sets would not do anything.
Hence, in our opinion, the algorithm design and method developments papers are equally worthy of getting cited

  1. Neese, F.
     An improvement of the resolution of the identity approximation for the formation of the Coulomb matrix
     J. Comp. Chem. 2003 24(14), 1740-1747
     doi.org/10.1002/jcc.10318
  2. Neese, F.
     The SHARK Integral Generation and Digestion System
     J. Comp. Chem. 2022 44(3), 381
     doi.org/10.1002/jcc.26942

List of suggested additional citations. These are papers that are important in the 'surrounding' of 
of this run, or papers that preceded the highly important papers. If you like your results we are grateful for a citation.

  1. Neese, F.
     The ORCA program system
     WIRES Comput. Molec. Sci. 2012 2(1), 73-78
     doi.org/10.1002/wcms.81
  2. Neese, F.
     Software update: the ORCA program system, version 4.0
     WIRES Comput. Molec. Sci. 2018 8(1), 1-6
     doi.org/10.1002/wcms.1327
  3. Neese, F.; Wennmohs, F.; Becker, U.; Riplinger, C.
     The ORCA quantum chemistry program package
     J. Chem. Phys. 2020 152(22), 224108
     doi.org/10.1063/5.0004608
  4. Neese, F.
     Software update: The ORCA program system—Version 5.0
     WIRES Comput. Molec. Sci. 2022 12(1), e1606
     doi.org/10.1002/wcms.1606

List of optional additional citations

  1. Neese, F.
     Approximate second-order SCF convergence for spin unrestricted wavefunctions
     Chem. Phys. Lett. 2000 325(1-3), 93-98
     doi.org/10.1016/s0009-2614(00)00662-x

Timings for individual modules:

Sum of individual times          ...        9.541 sec (=   0.159 min)
Startup calculation              ...        1.458 sec (=   0.024 min)  15.3 %
SCF iterations                   ...        5.938 sec (=   0.099 min)  62.2 %
Property calculations            ...        0.107 sec (=   0.002 min)   1.1 %
SCF Gradient evaluation          ...        2.017 sec (=   0.034 min)  21.1 %
Geometry relaxation              ...        0.021 sec (=   0.000 min)   0.2 %
                             ****ORCA TERMINATED NORMALLY****
TOTAL RUN TIME: 0 days 0 hours 0 minutes 10 seconds 496 msec
