
                                 *****************
                                 * O   R   C   A *
                                 *****************

                                            #,                                       
                                            ###                                      
                                            ####                                     
                                            #####                                    
                                            ######                                   
                                           ########,                                 
                                     ,,################,,,,,                         
                               ,,#################################,,                 
                          ,,##########################################,,             
                       ,#########################################, ''#####,          
                    ,#############################################,,   '####,        
                  ,##################################################,,,,####,       
                ,###########''''           ''''###############################       
              ,#####''   ,,,,##########,,,,          '''####'''          '####       
            ,##' ,,,,###########################,,,                        '##       
           ' ,,###''''                  '''############,,,                           
         ,,##''                                '''############,,,,        ,,,,,,###''
      ,#''                                            '''#######################'''  
     '                                                          ''''####''''         
             ,#######,   #######,   ,#######,      ##                                
            ,#'     '#,  ##    ##  ,#'     '#,    #''#        ,####,    ,#,          
            ##       ##  ##   ,#'  ##            #'  '#       #'       ,# #          
            ##       ##  #######   ##           ,######,      #####,      #          
            '#,     ,#'  ##    ##  '#,     ,#' ,#      #,     #,   #      #          
             '#######'   ##     ##  '#######'  #'      '#     '####' #    #          



                #########################################################
                #                        -***-                          #
                #          Department of theory and spectroscopy        #
                #                                                       #
                #                      Frank Neese                      #
                #                                                       #
                #     Directorship, Architecture, Infrastructure        #
                #                    SHARK, DRIVERS                     #
                #        Core code/Algorithms in most modules           #
                #                                                       #
                #        Max Planck Institute fuer Kohlenforschung      #
                #                Kaiser Wilhelm Platz 1                 #
                #                 D-45470 Muelheim/Ruhr                 #
                #                      Germany                          #
                #                                                       #
                #                  All rights reserved                  #
                #                        -***-                          #
                #########################################################


                         Program Version 6.1.0  -  RELEASE   -
                                (GIT: $679e74b7b5$)
                          ($2025-06-10 18:02:51 +0200$)


 With contributions from (in alphabetic order):
[Max-Planck-Institut fuer Kohlenforschung]                               
  Daniel Aravena         : Magnetic Suceptibility                        
  Michael Atanasov       : Ab Initio Ligand Field Theory (pilot matlab implementation)
  Alexander A. Auer      : GIAO ZORA, VPT2 properties, NMR spectrum      
  Ute Becker             : All parallelization in ORCA, NUMFREQ, NUMCALC 
  Giovanni Bistoni       : ED, misc. LED, open-shell LED, HFLD           
  Dmytro Bykov           : pre 5.0 version of the SCF Hessian            
  Marcos Casanova-Páez   : Triplet and SCS-CIS(D). UHF-(DLPNO)-IP/EA/STEOM-CCSD. UHF-CVS-IP/STEOM-CCSD   
  Vijay G. Chilkuri      : MRCI spin determinant printing, contributions to CSF-ICE 
  Pauline Colinet        : FMM embedding                                 
  Dipayan Datta          : RHF DLPNO-CCSD density                        
  Achintya Kumar Dutta   : EOM-CC, STEOM-CC                              
  Nicolas Foglia         : Exact transition moments, OPA infrastructure, MCD improvements    
  Dmitry Ganyushin       : Spin-Orbit,Spin-Spin,Magnetic field MRCI      
  Miquel Garcia-Rates    : C-PCM and meta-GGA Hessian, CCSD/C-PCM, Gaussian charge scheme 
  Tiago L. C. Gouveia    : GS-ROHF, GS-ROCIS                             
  Yang Guo               : DLPNO-NEVPT2, F12-NEVPT2, CIM, IAO-localization        
  Andreas Hansen         : Spin unrestricted coupled pair/coupled cluster methods 
  Ingolf Harden          : AUTO-CI MPn and infrastructure                
  Benjamin Helmich-Paris : MC-RPA, TRAH-(SCF,CASSCF), AVAS, COSX integrals, SCF dyn. polar., MC-PDFT, srDFT 
  Lee Huntington         : MR-EOM, pCC                                   
  Robert Izsak           : Overlap fitted RIJCOSX, COSX-SCS-MP3, EOM     
  Riya Kayal             : Wick's Theorem for AUTO-CI, AUTO-CI UHF-CCSDT 
  Emily Kempfer          : AUTO-CI RHF CISDT and CCSDT, approximate NEVPT4
  Christian Kollmar      : KDIIS, OOCD, Brueckner-CCSD(T), CCSD density, CASPT2, CASPT2-K, improved NEVPT2 
  Axel Koslowski         : Symmetry handling                             
  Simone Kossmann        : meta-GGA functionals, TD-DFT gradient, OOMP2, (MP2 Hessian; deprecated post 5.0) 
  Lucas Lang             : DCDCAS, Hyperfine gauge corrections, ICE-SOC+SSC
  Marvin Lechner         : AUTO-CI (C++ implementation), FIC-MRCC        
  Spencer Leger          : CASSCF response                               
  Dagmar Lenk            : GEPOL surface, SMD, ORCA-2-JSON               
  Dimitrios Liakos       : Extrapolation schemes; Compound Job, Property file
  Dimitrios Manganas     : Further ROCIS development; embedding schemes. LFT, Crystal Embedding 
  Dimitrios Pantazis     : SARC Basis sets                               
  Anastasios Papadopoulos: AUTO-CI, single reference methods and gradients 
  Taras Petrenko         : pre 6.0 DFT Hessian and TD-DFT gradient,  ECA, NRVS 
  Petra Pikulova         : Analytic Raman intensities                    
  Peter Pinski           : DLPNO-MP2, DLPNO-MP2 Gradient                 
  Shashank Vittal Rao    : ES-AILFT, MagRelax                            
  Christoph Reimann      : Effective Core Potentials                     
  Marius Retegan         : Local ZFS, SOC                                
  Christoph Riplinger    : Optimizer, TS searches, QM/MM, DLPNO-CCSD(T), (RO)-DLPNO pert. Triples 
  Michael Roemelt        : Original ROCIS implementation, recursive CI coupling coefficients
  Masaaki Saitow         : Open-shell DLPNO-CCSD energy and density      
  Barbara Sandhoefer     : DKH picture change effects                    
  Yorick L. A. Schmerwitz: GMF and freeze-and-release deltaSCF, NEB S-IDPP initial path                    
  Kantharuban Sivalingam : CASSCF convergence/infrastructure, NEVPT2, NEVPT3, NEVPT4(SD), FIC-MRCI and CEPA variants
  Bernardo de Souza      : ESD, SOC TD-DFT                               
  Georgi L. Stoychev     : AutoAux, RI-MP2 NMR, DLPNO-MP2 response, X2C  
  Van Anh Tran           : RI-MP2 g-tensors                              
  Willem Van den Heuvel  : Paramagnetic NMR                              
  Zikuan Wang            : NOTCH, Electric field optimization            
  Frank Wennmohs         : Technical directorship and infrastructure     
  Hang Xu                : AUTO-CI-Response properties                   
                                                                         
[FACCTs GmbH]                                                            
  Markus Bursch, Nicolas Foglia, Miquel Garcia-Rates, Ingolf Harden, Hagen Neugebauer, Anastasios Papadopoulos, 
  Christoph Riplinger, Bernardo de Souza, Georgi L. Stoychev                                                    
                                                                 
  APM, various basis sets, CI-OPT, improved COSX, DLPNO-Multilevel,           
  DOCKER, DRACO, updates on ESD, Fragmentator, GOAT, IRC, LR-CPCM, L-BFGS, MBIS, meta-GGA TD-DFT gradient, ML-optimized integration grids, 
  MM, NACMEs, nearIR, NEB, NEB-TS, NL-DFT gradient (VV10), 2- and 3-layer-ONIOM, interface openCOSMO-RS, QMMM,   
  Crystal-QMMM, RESP, rigid body optimization, SF, symmetry and pop. for TD-DFT, various functionals, SOLVATOR                                   
                                                                         
[Other institutions]                                                     
  V. Asgeirsson          : NEB                                           
  Christoph Bannwarth    : sTDA-DFT, sTD-DFT, PBEh-3c, B97-3c, D3        
  Giovanni Bistoni       : ETS/NOCV, ADLD/ADEX, COVALED                  
  Martin Brehm           : Molecular dynamics                            
  Ronald Cardenas        : ETS/NOCV                                      
  Martina Colucci        : COVALED                                       
  Sebastian Ehlert       : rSCAN, r2SCAN, r2SCAN-3c, D4, dhf basis sets  
  Marvin Friede          : D4 for Fr, Ra, Ac-Lr                          
  Lars Goerigk           : TD-DFT with DH, B97 family of functionals     
  Stefan Grimme          : VdW corrections, initial TS optimization, DFT functionals, gCP, sTDA/sTD-DF 
  Waldemar Hujo          : DFT-NL                                        
  H. Jonsson             : NEB                                           
  Holger Kruse           : gCP                                           
  Marcel Mueller         : wB97X-3c, vDZP basis set                      
  Hagen Neugebauer       : wr2SCAN, Native XTB                           
  Gianluca Regni         : ADLD/ADEX                                     
  Tobias Risthaus        : pre 6.0 range-separated hybrid DFT and stability analysis
  Lukas Wittmann         : regularized MP2, r2SCAN double-hybrids, wr2SCAN        
                                                                         
We gratefully acknowledge several colleagues who have allowed us to      
interface, adapt or use parts of their codes:                            
  Ed Valeev, F. Pavosevic, A. Kumar             : LibInt (2-el integral package), F12 methods 
  Garnet Chan, S. Sharma, J. Yang, R. Olivares  : DMRG                   
  Ulf Ekstrom                                   : XCFun DFT Library      
  Mihaly Kallay                                 : mrcc  (arbitrary order and MRCC methods)
  Frank Weinhold                                : gennbo (NPA and NBO analysis)           
  Simon Mueller                                 : openCOSMO-RS                            
  Christopher J. Cramer and Donald G. Truhlar   : smd solvation model                     
  S Lehtola, MJT Oliveira, MAL Marques          : LibXC Library                           
  Liviu Ungur et al                             : ANISO software                          


 Your calculation uses the libint2 library for the computation of 2-el integrals
 For citations please refer to: http://libint.valeyev.net

 Your ORCA version has been built with support for libXC version: 7.0.0
 For citations please refer to: https://libxc.gitlab.io

 This ORCA versions uses:
   CBLAS   interface :  Fast vector & matrix operations
   LAPACKE interface :  Fast linear algebra routines
   SCALAPACK package :  Parallel linear algebra routines
   Shared memory     :  Shared parallel matrices


  ***********************************
  * Starting time: Thu Dec  4 21:53:56 2025
  * Host name:     Grants-Air.localdomain
  * Process ID:    37718
  * Working dir.:  /Users/grantkruttschnitt/Desktop/Github/OrcaChemistry/new_trial
  ***********************************

NOTE: MaxCore=2000 MB was set to SCF,MP2,MDCI,CIPSI,MRCI,RASCI and CIS
      => If you want to overwrite this, your respective input block should be placed after the MaxCore statement


***************************************
The coordinates will be read from file: reactant_complex3.xyz
***************************************


Your calculation utilizes a Nudged-Elastic-Band implementation
by V. Ásgeirsson, C. Riplinger & H. Jónsson
Please cite in your paper:
Ásgeirsson, V.; Birgisson, B. O.; Bjornsson, R.; Becker, U.; Neese, F.; Riplinger, R.;
Jónsson H. J. Chem. Theory Comput. 2021, 17, 4929-4945
   

Warning: RI is on but no J-basis has been assigned. Assigning Def2/J (nothing to worry about!)
================================================================================

----- Orbital basis set information -----
Your calculation utilizes the basis: def2-SVP
   F. Weigend and R. Ahlrichs, Phys. Chem. Chem. Phys. 7, 3297 (2005).

----- AuxJ basis set information -----
Your calculation utilizes the auxiliary basis: def2/J
   H-Rn: F. Weigend, Phys. Chem. Chem. Phys. 8, 1057 (2006).
   Fr-Lr: K. Eichkorn, F. Weigend, O. Treutler, R. Ahlrichs; Theor. Chem. Acc. 97, 119 (1997).

================================================================================
                                        WARNINGS
                       Please study these warnings very carefully!
================================================================================


WARNING: Geometry Optimization
  ===> : Switching off AutoStart
         For restart on a previous wavefunction, please use MOREAD

================================================================================
                                       INPUT FILE
================================================================================
NAME = sn2_clean.inp
|  1> ! PBE def2-SVP NEB-TS CPCM(Water)
|  2> 
|  3> %NEB
|  4> NEB_END_XYZFILE "product_complex3.xyz"
|  5> PREOPT TRUE
|  6> NImages 3
|  7> MaxIter 200
|  8> END
|  9> 
| 10> %MaxCore 2000
| 11> 
| 12> * XYZFILE -1 1 reactant_complex3.xyz
| 13> 
| 14>                          ****END OF INPUT****
================================================================================


--------------------------------------------------------------------------------
                        Nudged Elastic Band Calculation
--------------------------------------------------------------------------------

Number of images (incl. end points)     ....  5
Number of intermediate images           ....  3
Number of optimized images              ....  3
Optimization of end points before NEB   ....  YES
Use existing gbw files for MO input     ....  NO
Number of atoms                         ....  19
Number of (active) degrees of freedom   ....  57
Constrained atoms                       ....  None


Before the actual NEB run reactant and product are preoptimized.

---------------------------------------------------------------
                        REACTANT OPTIMIZATION            
---------------------------------------------------------------

Geometry optimization settings:
Update method            Update   .... BFGS
Choice of coordinates    CoordSys .... (2022) Redundant Internals
Initial Hessian          InHess   .... Almloef's Model
Max. no of cycles        MaxIter  .... 57

Convergence Tolerances:
Energy Change            TolE     ....  5.0000e-06 Eh
Max. Gradient            TolMAXG  ....  3.0000e-04 Eh/bohr
RMS Gradient             TolRMSG  ....  1.0000e-04 Eh/bohr
Max. Displacement        TolMAXD  ....  4.0000e-03 bohr
RMS Displacement         TolRMSD  ....  2.0000e-03 bohr
Strict Convergence                .... False

------------------------------------------------------------------------------
                        ORCA OPTIMIZATION COORDINATE SETUP
------------------------------------------------------------------------------

The optimization will be done in redundant internal coordinates (2022)
Making redundant internal coordinates   ...  (2022 redundants) done
Evaluating the initial hessian          ...  (Almloef) done
Evaluating the coordinates              ...  done
Calculating the B-matrix                .... done
Calculating the G-matrix                .... done
The number of degrees of freedom        ....  115

    -----------------------------------------------------------------
                    Redundant Internal Coordinates


    -----------------------------------------------------------------
         Definition                    Initial Value    Approx d2E/dq
    -----------------------------------------------------------------
      1. B(C   1,C   0)                  1.5497         0.347550   
      2. B(H   2,C   0)                  1.2902         0.172589   
      3. B(H   3,C   0)                  1.1365         0.303585   
      4. B(H   4,C   0)                  1.1207         0.321685   
      5. B(C   5,C   1)                  1.5352         0.366500   
      6. B(C   7,C   5)                  1.5332         0.369199   
      7. B(H   8,C   5)                  1.1126         0.331364   
      8. B(H   9,C   5)                  1.1128         0.331207   
      9. B(C  10,C   7)                  1.5242         0.381604   
     10. B(C  10,H   6)                  1.1116         0.332626   
     11. B(H  11,C   7)                  1.1118         0.332424   
     12. B(H  12,C   7)                  1.1128         0.331160   
     13. B(H  13,C  10)                  1.1111         0.333295   
     14. B(H  14,C  10)                  1.1116         0.332597   
     15. B(H  15,C   1)                  1.1128         0.331129   
     16. B(O  16,H   2)                  1.1166         0.292480   
     17. B(O  16,C   0)                  1.6650         0.203740   
     18. B(H  17,H   8)                  3.4344         0.010000   
     19. B(H  17,H   2)                  3.1791         0.010000   
     20. B(H  17,O  16)                  3.0077         0.010000   
     21. B(Br 18,C   1)                  1.9464         0.271967   
     22. A(H   3,C   0,O  16)           99.6378         0.284746   
     23. A(H   2,C   0,O  16)           42.0551         0.261258   
     24. A(H   4,C   0,O  16)          129.7570         0.287328   
     25. A(C   1,C   0,H   4)          105.2618         0.314668   
     26. A(C   1,C   0,O  16)          114.1925         0.322360   
     27. A(C   1,C   0,H   2)          113.8673         0.285004   
     28. A(H   3,C   0,H   4)           96.5403         0.278294   
     29. A(H   2,C   0,H   3)          132.2124         0.253411   
     30. A(C   1,C   0,H   3)          107.7478         0.311729   
     31. A(H   2,C   0,H   4)           94.3019         0.255580   
     32. A(C   0,C   1,Br 18)          110.2488         0.361534   
     33. A(C   5,C   1,H  15)          109.0124         0.318897   
     34. A(C   5,C   1,Br 18)          112.0807         0.364829   
     35. A(C   0,C   1,C   5)          112.3093         0.357739   
     36. A(H  15,C   1,Br 18)          106.4092         0.322144   
     37. A(C   0,C   1,H  15)          106.4409         0.316151   
     38. A(O  16,H   2,H  17)           71.0363         0.107428   
     39. A(C   0,H   2,H  17)          143.8397         0.105547   
     40. A(C   0,H   2,O  16)           87.2326         0.250130   
     41. A(H   8,C   5,H   9)          107.4215         0.283361   
     42. A(C   7,C   5,H   9)          110.5593         0.319291   
     43. A(C   1,C   5,H   9)          109.6770         0.318909   
     44. A(C   1,C   5,H   8)          108.0943         0.318934   
     45. A(C   7,C   5,H   8)          106.5519         0.319316   
     46. A(C   1,C   5,C   7)          114.2444         0.361439   
     47. A(C   5,C   7,C  10)          113.4506         0.363941   
     48. A(H  11,C   7,H  12)          107.9444         0.283496   
     49. A(C  10,C   7,H  12)          107.7843         0.321013   
     50. A(C   5,C   7,H  12)          108.9175         0.319284   
     51. A(C  10,C   7,H  11)          107.6621         0.321213   
     52. A(C   5,C   7,H  11)          110.8985         0.319482   
     53. A(C   5,H   8,H  17)          154.8972         0.104511   
     54. A(H   6,C  10,C   7)          111.3841         0.321245   
     55. A(H  13,C  10,H  14)          108.0590         0.283802   
     56. A(C   7,C  10,H  14)          109.6832         0.321240   
     57. A(H   6,C  10,H  14)          107.8268         0.283713   
     58. A(C   7,C  10,H  13)          111.3882         0.321350   
     59. A(H   6,C  10,H  13)          108.3733         0.283806   
     60. A(H   2,O  16,H  17)           88.4088         0.126244   
     61. A(C   0,O  16,H  17)          131.0358         0.128816   
     62. A(C   0,O  16,H   2)           50.7123         0.280840   
     63. A(H   2,H  17,H   8)           42.4603         0.090530   
     64. A(H   8,H  17,O  16)           55.5213         0.092093   
     65. A(H   2,H  17,O  16)           20.5549         0.092825   
     66. D(C   5,C   1,C   0,H   4)    -65.2159         0.010315   
     67. D(H  15,C   1,C   0,H   2)    -82.5664         0.010315   
     68. D(C   5,C   1,C   0,O  16)     82.9220         0.010315   
     69. D(C   5,C   1,C   0,H   3)   -167.4142         0.010315   
     70. D(H  15,C   1,C   0,H   4)    175.5602         0.010315   
     71. D(C   5,C   1,C   0,H   2)     36.6575         0.010315   
     72. D(H  15,C   1,C   0,H   3)     73.3619         0.010315   
     73. D(H  17,H   2,C   0,H   4)    157.2021         0.025996   
     74. D(H  17,H   2,C   0,C   1)     48.4217         0.025996   
     75. D(H  17,H   2,C   0,H   3)    -99.9445         0.025996   
     76. D(O  16,H   2,C   0,H   4)   -150.9343         0.025996   
     77. D(O  16,H   2,C   0,H   3)    -48.0808         0.025996   
     78. D(O  16,H   2,C   0,C   1)    100.2854         0.025996   
     79. D(C   7,C   5,C   1,H  15)    -51.1969         0.010751   
     80. D(C   7,C   5,C   1,C   0)   -168.9046         0.010751   
     81. D(H   8,C   5,C   1,Br 18)   -175.2519         0.010751   
     82. D(H   8,C   5,C   1,H  15)     67.2173         0.010751   
     83. D(H   8,C   5,C   1,C   0)    -50.4904         0.010751   
     84. D(C   7,C   5,C   1,Br 18)     66.3339         0.010751   
     85. D(H  11,C   7,C   5,H   9)     63.1100         0.010899   
     86. D(H  11,C   7,C   5,H   8)    179.5370         0.010899   
     87. D(H  11,C   7,C   5,C   1)    -61.1755         0.010899   
     88. D(C  10,C   7,C   5,H   9)    -58.1983         0.010899   
     89. D(C  10,C   7,C   5,C   1)    177.5163         0.010899   
     90. D(C  10,C   7,C   5,H   8)     58.2287         0.010899   
     91. D(H  17,H   8,C   5,H   9)   -123.7194         0.099316   
     92. D(H  17,H   8,C   5,C   7)    117.7759         0.099316   
     93. D(H  17,H   8,C   5,C   1)     -5.4385         0.099316   
     94. D(H   6,C  10,C   7,H  12)     61.6881         0.011601   
     95. D(H   6,C  10,C   7,H  11)    177.9002         0.011601   
     96. D(H   6,C  10,C   7,C   5)    -58.9939         0.011601   
     97. D(H  13,C  10,C   7,H  12)   -177.1866         0.011601   
     98. D(H  13,C  10,C   7,H  11)    -60.9745         0.011601   
     99. D(H  13,C  10,C   7,C   5)     62.1314         0.011601   
    100. D(H  17,O  16,H   2,C   0)   -150.6113         0.091288   
    101. D(C   0,O  16,H   2,H  17)    150.6113         0.091288   
    102. D(H  17,O  16,C   0,H   3)   -173.4207         0.010000   
    103. D(H  17,O  16,C   0,H   2)     40.5664         0.010000   
    104. D(H  17,O  16,C   0,C   1)    -58.8854         0.010000   
    105. D(H   2,O  16,C   0,H   4)     39.0619         0.010000   
    106. D(H   2,O  16,C   0,H   3)    146.0129         0.010000   
    107. D(H   2,O  16,C   0,C   1)    -99.4518         0.010000   
    108. D(H   8,H  17,O  16,H   2)     44.1456         0.010000   
    109. D(H   8,H  17,O  16,C   0)     13.9115         0.010000   
    110. D(H   2,H  17,O  16,C   0)    -30.2340         0.010000   
    111. D(H   2,H  17,H   8,C   5)     43.9980         0.010000   
    112. D(O  16,H  17,H   8,C   5)     22.7603         0.010000   
    113. D(H   8,H  17,H   2,O  16)   -121.7367         0.010000   
    114. D(H   8,H  17,H   2,C   0)    -65.5646         0.010000   
    115. D(O  16,H  17,H   2,C   0)     56.1721         0.010000   
    -----------------------------------------------------------------

Number of atoms                         .... 19
Number of degrees of freedom            .... 115


         *************************************************************
         *                GEOMETRY OPTIMIZATION CYCLE   1            *
         *************************************************************
---------------------------------
CARTESIAN COORDINATES (ANGSTROEM)
---------------------------------
  C     -3.385481    0.612250   -0.082065
  C     -2.106683    1.356198    0.379073
  H     -3.224112   -0.658866   -0.233210
  H     -4.281738    1.236068    0.232807
  H     -3.466440    0.817943   -1.180756
  C     -0.834227    0.774642   -0.252989
  H      1.712425   -0.447579   -0.109653
  C      0.469404    1.290732    0.367431
  H     -0.844246   -0.327201   -0.098697
  H     -0.843828    0.957456   -1.350595
  C      1.719150    0.657189   -0.232550
  H      0.557827    2.392241    0.245409
  H      0.464076    1.065847    1.457263
  H      1.810760    0.888552   -1.315382
  H      2.622457    1.051313    0.281665
  H     -2.051678    1.233011    1.483696
  O     -3.705897   -0.784157    0.766299
  H     -2.074412   -3.282159    1.146276
  Br    -2.281611    3.266048    0.046830

----------------------------
CARTESIAN COORDINATES (A.U.)
----------------------------
  NO LB      ZA    FRAG     MASS         X           Y           Z
   0 C     6.0000    0    12.011   -6.397633    1.156985   -0.155080
   1 C     6.0000    0    12.011   -3.981054    2.562843    0.716344
   2 H     1.0000    0     1.008   -6.092688   -1.245077   -0.440702
   3 H     1.0000    0     1.008   -8.091312    2.335829    0.439942
   4 H     1.0000    0     1.008   -6.550623    1.545688   -2.231306
   5 C     6.0000    0    12.011   -1.576461    1.463861   -0.478080
   6 H     1.0000    0     1.008    3.236014   -0.845803   -0.207214
   7 C     6.0000    0    12.011    0.887045    2.439131    0.694343
   8 H     1.0000    0     1.008   -1.595394   -0.618320   -0.186509
   9 H     1.0000    0     1.008   -1.594604    1.809330   -2.552254
  10 C     6.0000    0    12.011    3.248722    1.241907   -0.439456
  11 H     1.0000    0     1.008    1.054139    4.520681    0.463755
  12 H     1.0000    0     1.008    0.876977    2.014160    2.753829
  13 H     1.0000    0     1.008    3.421841    1.679121   -2.485712
  14 H     1.0000    0     1.008    4.955725    1.986693    0.532269
  15 H     1.0000    0     1.008   -3.877109    2.330053    2.803780
  16 O     8.0000    0    15.999   -7.003131   -1.481841    1.448094
  17 H     1.0000    0     1.008   -3.920071   -6.202381    2.166148
  18 Br   35.0000    0    79.900   -4.311620    6.171935    0.088497

--------------------------------
INTERNAL COORDINATES (ANGSTROEM)
--------------------------------
 C      0   0   0     0.000000000000     0.00000000     0.00000000
 C      1   0   0     1.549655801922     0.00000000     0.00000000
 H      1   2   0     1.290202219034   113.86728760     0.00000000
 H      1   2   3     1.136471757316   107.74778231   155.92833096
 H      1   2   3     1.120708094740   105.26177048   258.12660178
 C      2   1   3     1.535204613840   112.30930987    36.65750404
 H      6   2   1     2.828393157021   152.76263187   239.77831725
 C      6   2   1     1.533207449339   114.24435183   191.09542025
 H      6   2   1     1.112638047576   108.09429728   309.50964434
 H      6   2   1     1.112767442277   109.67695544    66.34005310
 C      7   6   2     1.111603154586    64.55627510   262.20762182
 H      8   6   2     1.111768559758   110.89850442   298.82452692
 H      8   6   2     1.112805903463   108.91745480    57.47593862
 H     11   7   6     1.111056433275   108.37325367   265.29555001
 H     11   7   6     1.111626783650   107.82681258   148.55629557
 H      2   1   3     1.112831185599   106.44087610   277.43357115
 O      3   1   2     1.116616100873    87.23259604   100.28536372
 H     17   3   1     3.007680400828    88.40875744   209.38868800
 Br     2   1   3     1.946409351913   110.24880327   162.42213203

---------------------------
INTERNAL COORDINATES (A.U.)
---------------------------
 C      0   0   0     0.000000000000     0.00000000     0.00000000
 C      1   0   0     2.928425067474     0.00000000     0.00000000
 H      1   2   0     2.438128851352   113.86728760     0.00000000
 H      1   2   3     2.147620380264   107.74778231   155.92833096
 H      1   2   3     2.117831375128   105.26177048   258.12660178
 C      2   1   3     2.901116279689   112.30930987    36.65750404
 H      6   2   1     5.344888465827   152.76263187   239.77831725
 C      6   2   1     2.897342185739   114.24435183   191.09542025
 H      6   2   1     2.102581196099   108.09429728   309.50964434
 H      6   2   1     2.102825716648   109.67695544    66.34005310
 C      7   6   2     2.100625531771    64.55627510   262.20762182
 H      8   6   2     2.100938102246   110.89850442   298.82452692
 H      8   6   2     2.102898397756   108.91745480    57.47593862
 H     11   7   6     2.099592378221   108.37325367   265.29555001
 H     11   7   6     2.100670184231   107.82681258   148.55629557
 H      2   1   3     2.102946174070   106.44087610   277.43357115
 O      3   1   2     2.110098627376    87.23259604   100.28536372
 H     17   3   1     5.683692255927    88.40875744   209.38868800
 Br     2   1   3     3.678180619619   110.24880327   162.42213203

---------------------
BASIS SET INFORMATION
---------------------
There are 4 groups of distinct atoms

 Group   1 Type C   : 7s4p1d contracted to 3s2p1d pattern {511/31/1}
 Group   2 Type H   : 4s1p contracted to 2s1p pattern {31/1}
 Group   3 Type O   : 7s4p1d contracted to 3s2p1d pattern {511/31/1}
 Group   4 Type Br  : 14s10p6d contracted to 5s4p3d pattern {63311/5311/411}

Atom   0C    basis set group =>   1
Atom   1C    basis set group =>   1
Atom   2H    basis set group =>   2
Atom   3H    basis set group =>   2
Atom   4H    basis set group =>   2
Atom   5C    basis set group =>   1
Atom   6H    basis set group =>   2
Atom   7C    basis set group =>   1
Atom   8H    basis set group =>   2
Atom   9H    basis set group =>   2
Atom  10C    basis set group =>   1
Atom  11H    basis set group =>   2
Atom  12H    basis set group =>   2
Atom  13H    basis set group =>   2
Atom  14H    basis set group =>   2
Atom  15H    basis set group =>   2
Atom  16O    basis set group =>   3
Atom  17H    basis set group =>   2
Atom  18Br   basis set group =>   4
---------------------------------
AUXILIARY/J BASIS SET INFORMATION
---------------------------------
There are 4 groups of distinct atoms

 Group   1 Type C   : 12s5p4d2f1g contracted to 6s4p3d1f1g pattern {711111/2111/211/2/1}
 Group   2 Type H   : 5s2p1d contracted to 3s1p1d pattern {311/2/1}
 Group   3 Type O   : 12s5p4d2f1g contracted to 6s4p3d1f1g pattern {711111/2111/211/2/1}
 Group   4 Type Br  : 19s5p5d3f1g contracted to 8s4p3d2f1g pattern {121111111/2111/311/21/1}

Atom   0C    basis set group =>   1
Atom   1C    basis set group =>   1
Atom   2H    basis set group =>   2
Atom   3H    basis set group =>   2
Atom   4H    basis set group =>   2
Atom   5C    basis set group =>   1
Atom   6H    basis set group =>   2
Atom   7C    basis set group =>   1
Atom   8H    basis set group =>   2
Atom   9H    basis set group =>   2
Atom  10C    basis set group =>   1
Atom  11H    basis set group =>   2
Atom  12H    basis set group =>   2
Atom  13H    basis set group =>   2
Atom  14H    basis set group =>   2
Atom  15H    basis set group =>   2
Atom  16O    basis set group =>   3
Atom  17H    basis set group =>   2
Atom  18Br   basis set group =>   4
------------------------------------------------------------------------------
                             ORCA STARTUP CALCULATIONS
                           -- RI-GTO INTEGRALS CHOSEN --
------------------------------------------------------------------------------
------------------------------------------------------------------------------
                   ___                                                        
                  /   \      - P O W E R E D   B Y -                         
                 /     \                                                     
                 |  |  |   _    _      __       _____    __    __             
                 |  |  |  | |  | |    /  \     |  _  \  |  |  /  |          
                  \  \/   | |  | |   /    \    | | | |  |  | /  /          
                 / \  \   | |__| |  /  /\  \   | |_| |  |  |/  /          
                |  |  |   |  __  | /  /__\  \  |    /   |      \           
                |  |  |   | |  | | |   __   |  |    \   |  |\   \          
                \     /   | |  | | |  |  |  |  | |\  \  |  | \   \       
                 \___/    |_|  |_| |__|  |__|  |_| \__\ |__|  \__/        
                                                                              
                      - O R C A' S   B I G   F R I E N D -                    
                                      &                                       
                       - I N T E G R A L  F E E D E R -                       
                                                                              
 v1 FN, 2020, v2 2021, v3 2022-2024                                           
------------------------------------------------------------------------------


----------------------
SHARK INTEGRAL PACKAGE
----------------------

Number of atoms                             ...     19
Number of basis functions                   ...    176
Number of shells                            ...     84
Maximum angular momentum                    ...      2
Integral batch strategy                     ... SHARK/LIBINT Hybrid
RI-J (if used) integral strategy            ... SPLIT-RIJ (Revised 2003 algorithm where possible)
Printlevel                                  ...      1
Contraction scheme used                     ... SEGMENTED contraction
Prescreening option                         ... SCHWARTZ
   Thresh                                   ... 2.500e-11
   Tcut                                     ... 2.500e-12
   Tpresel                                  ... 2.500e-12 
Coulomb Range Separation                    ... NOT USED
Exchange Range Separation                   ... NOT USED
Multipole approximations                    ... NOT USED
Finite Nucleus Model                        ... NOT USED
CABS basis                                  ... NOT available
Auxiliary Coulomb fitting basis             ... AVAILABLE
   # of basis functions in Aux-J            ...    484
   # of shells in Aux-J                     ...    168
   Maximum angular momentum in Aux-J        ...      4
Auxiliary J/K fitting basis                 ... NOT available
Auxiliary Correlation fitting basis         ... NOT available
Auxiliary 'external' fitting basis          ... NOT available

Checking pre-screening integrals            ... done (  0.0 sec) Dimension = 84
   => SHARK Basis and OBASIS are compatible. Storing Pre-screening
Shell pair information
Shell pair cut-off parameter TPreSel        ...   2.5e-12
Total number of shell pairs                 ...      3570
Shell pairs after pre-screening             ...      3196
Total number of primitive shell pairs       ...     13357
Primitive shell pairs kept                  ...      8538
          la=0 lb=0:   1035 shell pairs
          la=1 lb=0:   1186 shell pairs
          la=1 lb=1:    350 shell pairs
          la=2 lb=0:    373 shell pairs
          la=2 lb=1:    214 shell pairs
          la=2 lb=2:     38 shell pairs

Checking whether 4 symmetric matrices of dimension 176 fit in memory
:Max Core in MB      =   2000.00
 MB in use           =      6.62
 MB left             =   1993.38
 MB needed           =      0.48
 Data fit in memory  = YES
Calculating RI/J V-Matrix + Cholesky decomp.... done (  0.0 sec)
Calculating Nuclear repulsion               ... done (  0.0 sec) ENN=    520.553875560844 Eh

Diagonalization of the overlap matrix:
Smallest eigenvalue                        ... 1.440e-03
Time for diagonalization                   ...    0.005 sec
Threshold for overlap eigenvalues          ... 1.000e-07
Number of eigenvalues below threshold      ... 0
Time for construction of square roots      ...    0.003 sec
Total time needed                          ...    0.009 sec

-------------------
DFT GRID GENERATION
-------------------

General Integration Accuracy     IntAcc      ... 4.388
Radial Grid Type                 RadialGrid  ... OptM3 with GC (2021)
Angular Grid (max. ang.)         AngularGrid ... 4 (Lebedev-302)
Angular grid pruning method      GridPruning ... 4 (adaptive)
Weight generation scheme         WeightScheme... mBecke (2022)
Basis function cutoff            BFCut       ... 1.0000e-11
Integration weight cutoff        WCut        ... 1.0000e-14
Partially contracted basis set               ... off
Rotationally invariant grid construction     ... off
Angular grids for H and He will be reduced by one unit
Core-polarized basis detected: some atoms will have their core
                               angular grid increased.

Total number of grid points                  ...    85987
Total number of batches                      ...     1355
Average number of points per batch           ...       63
Average number of grid points per atom       ...     4526
Grids setup in   0.7 sec
Initializing property integral containers    ... done (  0.0 sec)

SHARK setup successfully completed in   0.9 seconds

Maximum memory used throughout the entire STARTUP-calculation: 40.3 MB
-------------------------------------------------------------------------------
                                 ORCA GUESS
                   Start orbitals & Density for SCF / CASSCF
-------------------------------------------------------------------------------

------------
SCF SETTINGS
------------
Hamiltonian:
 Density Functional     Method          .... DFT(GTOs)
 Exchange Functional    Exchange        .... PBE
   PBE kappa parameter   XKappa         ....  0.804000
   PBE mue parameter    XMuePBE         ....  0.219520
 Correlation Functional Correlation     .... PBE
   PBE beta parameter  CBetaPBE         ....  0.066725
 LDA part of GGA corr.  LDAOpt          .... PW91-LDA
 Gradients option       PostSCFGGA      .... off
   NL short-range parameter             ....  6.400000
 RI-approximation to the Coulomb term is turned on
   Number of AuxJ basis functions       .... 484


General Settings:
 Integral files         IntName         .... sn2_clean_reactant
 Hartree-Fock type      HFTyp           .... RHF
 Total Charge           Charge          ....   -1
 Multiplicity           Mult            ....    1
 Number of Electrons    NEL             ....   86
 Basis Dimension        Dim             ....  176
 Nuclear Repulsion      ENuc            ....    520.5538755608 Eh

Convergence Acceleration:
 AO-DIIS                CNVDIIS         .... on
   Start iteration      DIISMaxIt       ....    12
   Startup error        DIISStart       ....  0.200000
   # of expansion vecs  DIISMaxEq       ....     5
   Bias factor          DIISBfac        ....   1.050
   Max. coefficient     DIISMaxC        ....  10.000
 MO-DIIS                CNVKDIIS        .... off
 Trust-Rad. Augm. Hess. CNVTRAH         .... auto
   Auto Start mean grad. ratio tolernc. ....  1.125000
   Auto Start start iteration           ....    50
   Auto Start num. interpolation iter.  ....    10
   Max. Number of Micro iterations      ....    24
   Max. Number of Macro iterations      .... Maxiter - #DIIS iter
   Number of Davidson start vectors     ....     2
   Converg. threshold    (grad. norm)   ....   1.000e-05
   Grad. Scal. Fac. for Micro threshold ....   0.100
   Minimum threshold for Micro iter.    ....   1.000e-02
   NR start threshold (gradient norm)   ....   1.000e-04
   Initial trust radius                 ....   0.400
   Minimum AH scaling param. (alpha)    ....   1.000
   Maximum AH scaling param. (alpha)    .... 1000.000
   Quad. conv. algorithm                .... NR
   White noise on init. David. guess    .... on
   Maximum white noise                  ....   0.010
   Pseudo random numbers                .... off
   Inactive MOs                         .... canonical
   Orbital update algorithm             .... Taylor
   Preconditioner                       .... Diag
   Full preconditioner red. dimension   ....   250
 SOSCF                 CNVSOSCF           .... on
   Start iteration     SOSCFMaxIt         ....   150
   Startup grad/error  SOSCFStart         ....  0.003300
   Hessian update      SOSCFHessUp        .... L-BFGS
   Autom. constraints  SOSCFAutoConstrain .... off
 Level Shifting         CNVShift        .... on
   Level shift para.    LevelShift      ....    0.2500
   Turn off err/grad.   ShiftErr        ....    0.0010
 Zerner damping         CNVZerner       .... off
 Static damping         CNVDamp         .... on
   Fraction old density DampFac         ....    0.7000
   Max. Damping (<1)    DampMax         ....    0.9800
   Min. Damping (>=0)   DampMin         ....    0.0000
   Turn off err/grad.   DampErr         ....    0.1000

SCF Procedure:
 Maximum # iterations   MaxIter         ....   125
 SCF integral mode      SCFMode         .... Direct
   Integral package                     .... SHARK and LIBINT hybrid scheme
 Reset frequency        DirectResetFreq ....    20
 Integral Threshold     Thresh          ....  2.500e-11 Eh
 Primitive CutOff       TCut            ....  2.500e-12 Eh

Convergence Tolerance:
 Convergence Check Mode ConvCheckMode   .... Total+1el-Energy
 Convergence forced     ConvForced      .... 0
 Energy Change          TolE            ....  1.000e-08 Eh
 1-El. energy change                    ....  1.000e-05 Eh
 Orbital Gradient       TolG            ....  1.000e-05
 Orbital Rotation angle TolX            ....  1.000e-05
 DIIS Error             TolErr          ....  5.000e-07

------------------------------
INITIAL GUESS: MODEL POTENTIAL
------------------------------
Loading Hartree-Fock densities                     ... done
Calculating cut-offs                               ... done
Initializing the effective Hamiltonian             ... done
Setting up the integral package (SHARK)            ... done
Starting the Coulomb interaction                   ... done (   0.1 sec)
Making the grid                                    ... done (   0.2 sec)
Mapping shells                                     ... done
Starting the XC term evaluation                    ... done (   0.2 sec)
  promolecular density results
     # of electrons  =     84.996502686
     EX              =   -126.427244088
     EC              =     -3.333035742
     EX+EC           =   -129.760279830
Transforming the Hamiltonian                       ... done (   0.0 sec)
Diagonalizing the Hamiltonian                      ... done (   0.0 sec)
Back transforming the eigenvectors                 ... done (   0.0 sec)
Now organizing SCF variables                       ... done
                      ------------------
                      INITIAL GUESS DONE (   0.5 sec)
                      ------------------
             **** ENERGY FILE WAS UPDATED (sn2_clean_reactant.en.tmp) ****
Finished Guess after   0.6 sec
Maximum memory used throughout the entire GUESS-calculation: 15.4 MB
Warning: Unable to find asked property in file 'sn2_clean_reactant.property.txt'

-------------------------------------------------------------------------------------------
                                      ORCA LEAN-SCF
                              memory conserving SCF solver
-------------------------------------------------------------------------------------------

--------------------
CPCM SOLVATION MODEL
--------------------
CPCM parameters:
  Epsilon                                         ...      80.1510
  Refrac                                          ...       1.3328
  Rsolv                                           ...       1.3000
  Surface type                                    ... GAUSSIAN VDW
  Discretization scheme                           ... Constant charge density
    Threshold for H atoms                         ...       5.0000 (charges/Ang^2)
    Threshold for non-H atoms                     ...       5.0000 (charges/Ang^2)
  Epsilon function type                           ...         CPCM
Solvent:                                          ... WATER
Radii:
  Scheme                                          ... Element-dependent radii
  Radius for C  used is    3.8550 Bohr (=   2.0400 Ang.)
  Radius for H  used is    2.4944 Bohr (=   1.3200 Ang.)
  Radius for O  used is    3.4469 Bohr (=   1.8240 Ang.)
  Radius for Br used is    4.1952 Bohr (=   2.2200 Ang.)
Calculating surface                               ...        done! (  0.0s)
Cavity surface points                             ...         1688
Cavity Volume                                     ...    1185.6248
Cavity Surface-area                               ...     725.6204
Calculating surface distance matrix               ...        done! (  0.0s)
Performing Cholesky decomposition & store         ...        done! (  0.7s)
Overall time for CPCM initialization              ...                 0.7s

----------------------------------------D-I-I-S--------------------------------------------
Iteration    Energy (Eh)           Delta-E    RMSDP     MaxDP     DIISErr   Damp  Time(sec)
-------------------------------------------------------------------------------------------
               ***  Starting incremental Fock matrix formation  ***
    1    -2845.6248952786318114     0.00e+00  3.41e-03  1.15e-01  2.02e-01  0.700   1.3
Warning: op=0 Small HOMO/LUMO gap (   0.077) - skipping pre-diagonalization
         Will do a full diagonalization
    2    -2845.7166244268150876    -9.17e-02  2.47e-03  1.05e-01  1.13e-01  0.700   1.3
                               ***Turning on AO-DIIS***
    3    -2845.7495550186085893    -3.29e-02  1.08e-03  6.06e-02  6.53e-02  0.700   1.7
    4    -2845.7693543350028449    -1.98e-02  1.74e-03  1.08e-01  3.72e-02  0.000   1.3
    5    -2845.8136252257600063    -4.43e-02  4.50e-04  2.33e-02  1.39e-02  0.000   1.8
    6    -2845.8141358621464860    -5.11e-04  1.65e-04  5.96e-03  3.80e-03  0.000   1.6
                              *** Initializing SOSCF ***
---------------------------------------S-O-S-C-F--------------------------------------
Iteration    Energy (Eh)           Delta-E    RMSDP     MaxDP     MaxGrad    Time(sec)
--------------------------------------------------------------------------------------
    7    -2845.8141908373140723    -5.50e-05  6.64e-05  2.19e-03  8.33e-04     1.5
               *** Restarting incremental Fock matrix formation ***
    8    -2845.8141983296241051    -7.49e-06  6.38e-05  1.92e-03  2.48e-04     1.3
    9    -2845.8142007733918035    -2.44e-06  1.97e-05  9.00e-04  7.76e-05     1.0
   10    -2845.8142006663174470     1.07e-07  1.17e-05  3.08e-04  9.85e-05     1.0
   11    -2845.8142010056067193    -3.39e-07  4.01e-06  2.42e-04  2.16e-05     1.0
   12    -2845.8142010022384056     3.37e-09  2.32e-06  7.74e-05  3.47e-05     1.0
                 **** Energy Check signals convergence ****

               *****************************************************
               *                     SUCCESS                       *
               *           SCF CONVERGED AFTER  12 CYCLES          *
               *****************************************************

             **** ENERGY FILE WAS UPDATED (sn2_clean_reactant.en.tmp) ****

----------------
TOTAL SCF ENERGY
----------------

Total Energy       :      -2845.81420101997855 Eh          -77438.54131 eV

Components:
Nuclear Repulsion  :        520.55387556084361 Eh           14164.99109 eV
Electronic Energy  :      -3366.19003568072276 Eh          -91598.68766 eV
One Electron Energy:      -4994.56041292475675 Eh         -135908.89831 eV
Two Electron Energy:       1628.37037724403422 Eh           44310.21065 eV
CPCM Dielectric    :         -0.17804090009967 Eh              -4.84474 eV

Virial components:
Potential Energy   :      -5685.67204439754369 Eh         -154715.00189 eV
Kinetic Energy     :       2839.85784337756513 Eh           77276.46058 eV
Virial Ratio       :          2.00209741401539

DFT components:
N(Alpha)           :       43.000017862951 electrons
N(Beta)            :       43.000017862951 electrons
N(Total)           :       86.000035725903 electrons
E(X)               :     -127.378050850629 Eh       
E(C)               :       -3.372059504548 Eh       
E(XC)              :     -130.750110355177 Eh       

CPCM Solvation Model Properties:
Surface-charge          :          0.94691880884416
Corrected charge        :          1.00000000000000
Outlying charge corr.   :          0.00019230489705 Eh               0.00523 eV
Free-energy (cav+disp)  :  This term is not implemented in the current solvation scheme

---------------
SCF CONVERGENCE
---------------

  Last Energy change         ...   -3.3683e-09  Tolerance :   1.0000e-08
  Last MAX-Density change    ...    7.7441e-05  Tolerance :   1.0000e-07
  Last RMS-Density change    ...    2.3217e-06  Tolerance :   5.0000e-09
  Last DIIS Error            ...    8.3347e-04  Tolerance :   5.0000e-07
  Last Orbital Gradient      ...    3.4737e-05  Tolerance :   1.0000e-05
  Last Orbital Rotation      ...    2.8966e-05  Tolerance :   1.0000e-05


----------------
ORBITAL ENERGIES
----------------

  NO   OCC          E(Eh)            E(eV) 
   0   2.0000    -480.933098    -13086.8549 
   1   2.0000     -61.775315     -1680.9918 
   2   2.0000     -55.705781     -1515.8314 
   3   2.0000     -55.702973     -1515.7549 
   4   2.0000     -55.702781     -1515.7497 
   5   2.0000     -18.763488      -510.5805 
   6   2.0000      -9.964401      -271.1451 
   7   2.0000      -9.955886      -270.9134 
   8   2.0000      -9.901875      -269.4437 
   9   2.0000      -9.891617      -269.1646 
  10   2.0000      -9.884499      -268.9709 
  11   2.0000      -8.400610      -228.5922 
  12   2.0000      -6.282088      -170.9443 
  13   2.0000      -6.268527      -170.5753 
  14   2.0000      -6.268258      -170.5680 
  15   2.0000      -2.483348       -67.5753 
  16   2.0000      -2.480048       -67.4855 
  17   2.0000      -2.479857       -67.4803 
  18   2.0000      -2.469658       -67.2028 
  19   2.0000      -2.469654       -67.2027 
  20   2.0000      -0.874491       -23.7961 
  21   2.0000      -0.759713       -20.6729 
  22   2.0000      -0.697859       -18.9897 
  23   2.0000      -0.653262       -17.7762 
  24   2.0000      -0.605013       -16.4632 
  25   2.0000      -0.529596       -14.4110 
  26   2.0000      -0.509264       -13.8578 
  27   2.0000      -0.438068       -11.9204 
  28   2.0000      -0.426584       -11.6079 
  29   2.0000      -0.396238       -10.7822 
  30   2.0000      -0.388281       -10.5657 
  31   2.0000      -0.368820       -10.0361 
  32   2.0000      -0.352179        -9.5833 
  33   2.0000      -0.336821        -9.1654 
  34   2.0000      -0.313690        -8.5359 
  35   2.0000      -0.301774        -8.2117 
  36   2.0000      -0.287728        -7.8295 
  37   2.0000      -0.281118        -7.6496 
  38   2.0000      -0.261084        -7.1045 
  39   2.0000      -0.245042        -6.6679 
  40   2.0000      -0.241197        -6.5633 
  41   2.0000      -0.222343        -6.0503 
  42   2.0000      -0.150687        -4.1004 
  43   0.0000      -0.064153        -1.7457 
  44   0.0000      -0.015400        -0.4191 
  45   0.0000       0.042652         1.1606 
  46   0.0000       0.052671         1.4332 
  47   0.0000       0.065345         1.7781 
  48   0.0000       0.084545         2.3006 
  49   0.0000       0.099380         2.7043 
  50   0.0000       0.107951         2.9375 
  51   0.0000       0.119039         3.2392 
  52   0.0000       0.127391         3.4665 
  53   0.0000       0.130862         3.5609 
*Only the first 10 virtual orbitals were printed.

                    ********************************
                    * MULLIKEN POPULATION ANALYSIS *
                    ********************************

-----------------------
MULLIKEN ATOMIC CHARGES
-----------------------
   0 C :    0.097261
   1 C :   -0.156701
   2 H :    0.157241
   3 H :    0.075441
   4 H :    0.086850
   5 C :   -0.004610
   6 H :    0.032232
   7 C :   -0.051788
   8 H :    0.027448
   9 H :    0.034437
  10 C :   -0.052399
  11 H :    0.022771
  12 H :    0.028298
  13 H :    0.031877
  14 H :    0.033490
  15 H :    0.076535
  16 O :   -0.367646
  17 H :   -0.962324
  18 Br:   -0.108412
Sum of atomic charges:   -1.0000000

--------------------------------
MULLIKEN REDUCED ORBITAL CHARGES
--------------------------------
  0 C s       :     3.055602  s :     3.055602
      pz      :     0.995878  p :     2.807498
      px      :     1.041104
      py      :     0.770516
      dz2     :     0.011315  d :     0.039639
      dxz     :     0.003418
      dyz     :     0.007192
      dx2y2   :     0.007850
      dxy     :     0.009864

  1 C s       :     3.170086  s :     3.170086
      pz      :     1.096052  p :     2.945139
      px      :     1.030804
      py      :     0.818284
      dz2     :     0.010368  d :     0.041476
      dxz     :     0.005958
      dyz     :     0.004983
      dx2y2   :     0.010944
      dxy     :     0.009223

  2 H s       :     0.767986  s :     0.767986
      pz      :     0.029842  p :     0.074773
      px      :     0.019231
      py      :     0.025700

  3 H s       :     0.902827  s :     0.902827
      pz      :     0.005878  p :     0.021732
      px      :     0.009817
      py      :     0.006037

  4 H s       :     0.887533  s :     0.887533
      pz      :     0.014445  p :     0.025617
      px      :     0.005861
      py      :     0.005312

  5 C s       :     3.049404  s :     3.049404
      pz      :     1.010572  p :     2.923623
      px      :     0.918898
      py      :     0.994154
      dz2     :     0.009294  d :     0.031582
      dxz     :     0.006231
      dyz     :     0.001975
      dx2y2   :     0.008770
      dxy     :     0.005312

  6 H s       :     0.945114  s :     0.945114
      pz      :     0.005154  p :     0.022654
      px      :     0.004548
      py      :     0.012953

  7 C s       :     3.045551  s :     3.045551
      pz      :     1.008803  p :     2.972846
      px      :     0.944744
      py      :     1.019299
      dz2     :     0.009491  d :     0.033390
      dxz     :     0.006099
      dyz     :     0.002116
      dx2y2   :     0.009641
      dxy     :     0.006044

  8 H s       :     0.950103  s :     0.950103
      pz      :     0.005017  p :     0.022449
      px      :     0.004172
      py      :     0.013260

  9 H s       :     0.943978  s :     0.943978
      pz      :     0.013010  p :     0.021585
      px      :     0.003704
      py      :     0.004871

 10 C s       :     3.025178  s :     3.025178
      pz      :     1.006918  p :     3.002124
      px      :     0.986448
      py      :     1.008758
      dz2     :     0.007325  d :     0.025097
      dxz     :     0.004772
      dyz     :     0.001816
      dx2y2   :     0.007305
      dxy     :     0.003880

 11 H s       :     0.955043  s :     0.955043
      pz      :     0.004830  p :     0.022186
      px      :     0.004333
      py      :     0.013023

 12 H s       :     0.950041  s :     0.950041
      pz      :     0.012551  p :     0.021661
      px      :     0.004056
      py      :     0.005054

 13 H s       :     0.945451  s :     0.945451
      pz      :     0.012659  p :     0.022672
      px      :     0.004653
      py      :     0.005360

 14 H s       :     0.943980  s :     0.943980
      pz      :     0.006662  p :     0.022530
      px      :     0.009900
      py      :     0.005969

 15 H s       :     0.903043  s :     0.903043
      pz      :     0.013797  p :     0.020422
      px      :     0.003636
      py      :     0.002989

 16 O s       :     3.907566  s :     3.907566
      pz      :     1.313714  p :     4.451335
      px      :     1.791313
      py      :     1.346309
      dz2     :     0.002259  d :     0.008745
      dxz     :     0.001753
      dyz     :     0.002499
      dx2y2   :     0.001302
      dxy     :     0.000932

 17 H s       :     1.962230  s :     1.962230
      pz      :     0.000006  p :     0.000094
      px      :     0.000022
      py      :     0.000067

 18 Brs       :     7.970780  s :     7.970780
      pz      :     5.941611  p :    17.095408
      px      :     5.940687
      py      :     5.213110
      dz2     :     2.006366  d :    10.042225
      dxz     :     2.000546
      dyz     :     2.010560
      dx2y2   :     2.016096
      dxy     :     2.008656



                     *******************************
                     * LOEWDIN POPULATION ANALYSIS *
                     *******************************

----------------------
LOEWDIN ATOMIC CHARGES
----------------------
   0 C :    0.065178
   1 C :   -0.106293
   2 H :    0.080554
   3 H :    0.050638
   4 H :    0.067899
   5 C :   -0.059079
   6 H :    0.028261
   7 C :   -0.054659
   8 H :    0.034359
   9 H :    0.032470
  10 C :   -0.075780
  11 H :    0.021401
  12 H :    0.031039
  13 H :    0.028533
  14 H :    0.032550
  15 H :    0.040658
  16 O :   -0.296151
  17 H :   -0.963756
  18 Br:    0.042179

-------------------------------
LOEWDIN REDUCED ORBITAL CHARGES
-------------------------------
  0 C s       :     2.885389  s :     2.885389
      pz      :     1.050688  p :     2.950150
      px      :     1.066210
      py      :     0.833252
      dz2     :     0.030415  d :     0.099283
      dxz     :     0.007667
      dyz     :     0.015860
      dx2y2   :     0.018900
      dxy     :     0.026441

  1 C s       :     2.930519  s :     2.930519
      pz      :     1.101042  p :     3.077788
      px      :     1.059969
      py      :     0.916777
      dz2     :     0.025923  d :     0.097986
      dxz     :     0.013660
      dyz     :     0.010587
      dx2y2   :     0.024808
      dxy     :     0.023008

  2 H s       :     0.701234  s :     0.701234
      pz      :     0.078046  p :     0.218212
      px      :     0.044314
      py      :     0.095852

  3 H s       :     0.882366  s :     0.882366
      pz      :     0.014058  p :     0.066996
      px      :     0.031088
      py      :     0.021849

  4 H s       :     0.858213  s :     0.858213
      pz      :     0.044935  p :     0.073887
      px      :     0.014606
      py      :     0.014347

  5 C s       :     2.858915  s :     2.858915
      pz      :     1.054751  p :     3.116384
      px      :     1.003514
      py      :     1.058120
      dz2     :     0.024197  d :     0.083780
      dxz     :     0.016078
      dyz     :     0.005161
      dx2y2   :     0.024183
      dxy     :     0.014161

  6 H s       :     0.908032  s :     0.908032
      pz      :     0.012290  p :     0.063707
      px      :     0.012249
      py      :     0.039168

  7 C s       :     2.848429  s :     2.848429
      pz      :     1.052054  p :     3.121060
      px      :     1.010328
      py      :     1.058677
      dz2     :     0.024241  d :     0.085170
      dxz     :     0.015528
      dyz     :     0.005276
      dx2y2   :     0.025268
      dxy     :     0.014857

  8 H s       :     0.898762  s :     0.898762
      pz      :     0.012726  p :     0.066879
      px      :     0.012454
      py      :     0.041700

  9 H s       :     0.902178  s :     0.902178
      pz      :     0.040684  p :     0.065352
      px      :     0.011811
      py      :     0.012858

 10 C s       :     2.853279  s :     2.853279
      pz      :     1.060698  p :     3.155289
      px      :     1.034227
      py      :     1.060364
      dz2     :     0.019462  d :     0.067213
      dxz     :     0.012738
      dyz     :     0.004865
      dx2y2   :     0.019803
      dxy     :     0.010344

 11 H s       :     0.913111  s :     0.913111
      pz      :     0.012464  p :     0.065488
      px      :     0.012984
      py      :     0.040040

 12 H s       :     0.904948  s :     0.904948
      pz      :     0.038485  p :     0.064014
      px      :     0.012217
      py      :     0.013312

 13 H s       :     0.907755  s :     0.907755
      pz      :     0.038092  p :     0.063712
      px      :     0.012454
      py      :     0.013167

 14 H s       :     0.903860  s :     0.903860
      pz      :     0.017847  p :     0.063589
      px      :     0.030240
      py      :     0.015502

 15 H s       :     0.889488  s :     0.889488
      pz      :     0.045627  p :     0.069854
      px      :     0.012766
      py      :     0.011460

 16 O s       :     3.705343  s :     3.705343
      pz      :     1.380439  p :     4.576914
      px      :     1.795181
      py      :     1.401294
      dz2     :     0.003998  d :     0.013895
      dxz     :     0.003477
      dyz     :     0.003392
      dx2y2   :     0.001873
      dxy     :     0.001154

 17 H s       :     1.963623  s :     1.963623
      pz      :     0.000011  p :     0.000133
      px      :     0.000027
      py      :     0.000094

 18 Brs       :     7.825935  s :     7.825935
      pz      :     5.927631  p :    17.073839
      px      :     5.916274
      py      :     5.229935
      dz2     :     2.009026  d :    10.058047
      dxz     :     2.000639
      dyz     :     2.012087
      dx2y2   :     2.025432
      dxy     :     2.010863



                      *****************************
                      * MAYER POPULATION ANALYSIS *
                      *****************************

  NA   - Mulliken gross atomic population
  ZA   - Total nuclear charge
  QA   - Mulliken gross atomic charge
  VA   - Mayer's total valence
  BVA  - Mayer's bonded valence
  FA   - Mayer's free valence

  ATOM       NA         ZA         QA         VA         BVA        FA
  0 C      5.9027     6.0000     0.0973     3.8600     3.8600    -0.0000
  1 C      6.1567     6.0000    -0.1567     3.9666     3.9666     0.0000
  2 H      0.8428     1.0000     0.1572     1.0727     1.0727    -0.0000
  3 H      0.9246     1.0000     0.0754     0.9860     0.9860    -0.0000
  4 H      0.9132     1.0000     0.0868     0.9890     0.9890    -0.0000
  5 C      6.0046     6.0000    -0.0046     3.9624     3.9624     0.0000
  6 H      0.9678     1.0000     0.0322     0.9882     0.9882    -0.0000
  7 C      6.0518     6.0000    -0.0518     4.1138     4.1138    -0.0000
  8 H      0.9726     1.0000     0.0274     1.0216     1.0216     0.0000
  9 H      0.9656     1.0000     0.0344     0.9954     0.9954     0.0000
 10 C      6.0524     6.0000    -0.0524     4.0251     4.0251    -0.0000
 11 H      0.9772     1.0000     0.0228     0.9939     0.9939     0.0000
 12 H      0.9717     1.0000     0.0283     0.9776     0.9776     0.0000
 13 H      0.9681     1.0000     0.0319     0.9866     0.9866     0.0000
 14 H      0.9665     1.0000     0.0335     0.9821     0.9821    -0.0000
 15 H      0.9235     1.0000     0.0765     0.9875     0.9875     0.0000
 16 O      8.3676     8.0000    -0.3676     1.8321     1.8321    -0.0000
 17 H      1.9623     1.0000    -0.9623     0.0801     0.0801     0.0000
 18 Br    35.1084    35.0000    -0.1084     1.1246     1.1246    -0.0000

  Mayer bond orders larger than 0.100000
B(  0-C ,  1-C ) :   1.0096 B(  0-C ,  2-H ) :   0.1958 B(  0-C ,  3-H ) :   0.9152 
B(  0-C ,  4-H ) :   0.8828 B(  0-C , 16-O ) :   0.8408 B(  1-C ,  5-C ) :   1.0283 
B(  1-C , 15-H ) :   0.9036 B(  1-C , 18-Br) :   0.9825 B(  2-H , 16-O ) :   0.8187 
B(  5-C ,  7-C ) :   1.0861 B(  5-C ,  8-H ) :   0.9058 B(  5-C ,  9-H ) :   0.9330 
B(  6-H , 10-C ) :   0.9656 B(  7-C , 10-C ) :   1.1228 B(  7-C , 11-H ) :   0.9333 
B(  7-C , 12-H ) :   0.9366 B( 10-C , 13-H ) :   0.9650 B( 10-C , 14-H ) :   0.9609 


-------
TIMINGS
-------

Total SCF time: 0 days 0 hours 0 min 17 sec 

Total time                  ....      17.525 sec
Sum of individual times     ....      16.331 sec  ( 93.2%)

SCF preparation             ....       0.734 sec  (  4.2%)
Fock matrix formation       ....      15.337 sec  ( 87.5%)
  Startup                   ....       0.005 sec  (  0.0% of F)
  Split-RI-J                ....       2.849 sec  ( 18.6% of F)
  XC integration            ....       8.581 sec  ( 55.9% of F)
    XC Preparation          ....       0.000 sec  (  0.0% of XC)
    Basis function eval.    ....       3.277 sec  ( 38.2% of XC)
    Density eval.           ....       1.315 sec  ( 15.3% of XC)
    XC-Functional eval.     ....       0.382 sec  (  4.5% of XC)
    XC-Potential eval.      ....       1.891 sec  ( 22.0% of XC)
  CPCM terms                ....       4.642 sec  ( 30.3% of F)
Diagonalization             ....       0.000 sec  (  0.0%)
Density matrix formation    ....       0.059 sec  (  0.3%)
Total Energy calculation    ....       0.005 sec  (  0.0%)
Population analysis         ....       0.013 sec  (  0.1%)
Orbital Transformation      ....       0.016 sec  (  0.1%)
Orbital Orthonormalization  ....       0.000 sec  (  0.0%)
DIIS solution               ....       0.111 sec  (  0.6%)
SOSCF solution              ....       0.056 sec  (  0.3%)
Finished LeanSCF after  17.6 sec

Maximum memory used throughout the entire LEANSCF-calculation: 31.4 MB

-------------------------   --------------------
FINAL SINGLE POINT ENERGY     -2845.814201019979
-------------------------   --------------------

------------------------------------------------------------------------------
                         ORCA SCF GRADIENT CALCULATION
------------------------------------------------------------------------------

Nuc. rep. gradient        (SHARK) ... done (  0.0 sec)
HCore & Overlap gradient  (SHARK) ... done (  0.1 sec)
Split-RIJ-J gradient      (SHARK) ... done (  0.9 sec)
XC gradient                       ... done (  4.5 sec)
CPCM gradient                     ... done (  1.3 sec)

------------------
CARTESIAN GRADIENT
------------------

   1   C   :    0.039607303   -0.086072515   -0.051076709
   2   C   :   -0.000751397    0.037422176   -0.010483106
   3   H   :    0.011554392    0.070165238   -0.028330746
   4   H   :   -0.013036672    0.007388638    0.000702141
   5   H   :    0.000167613    0.030840188    0.007527824
   6   C   :   -0.004532952   -0.007831825   -0.003630333
   7   H   :   -0.000619441   -0.000640374    0.001179466
   8   C   :   -0.002311011    0.000633033    0.000849504
   9   H   :    0.005058267    0.001098538    0.000366361
  10   H   :    0.000523963    0.000895811   -0.000101014
  11   C   :   -0.003244801    0.000892926    0.000021647
  12   H   :    0.003709520   -0.000183541   -0.002347794
  13   H   :    0.002311709   -0.003261232   -0.000333557
  14   H   :   -0.000631712    0.001145273   -0.000384064
  15   H   :   -0.000070599    0.001667000    0.002268196
  16   H   :   -0.000528285   -0.004444427    0.001978545
  17   O   :   -0.036807268   -0.046575785    0.078937944
  18   H   :   -0.003140592    0.004093674   -0.000545169
  19   Br  :    0.002741963   -0.007232796    0.003400863

Difference to translation invariance:
           :    0.0000000002   -0.0000000005   -0.0000000000

Difference to rotation invariance:
           :    0.0001521923    0.0000208486   -0.0006944511

Norm of the Cartesian gradient     ...    0.1739392223
RMS gradient                       ...    0.0230388128
MAX gradient                       ...    0.0860725154

-------
TIMINGS
-------

Total SCF gradient time     ....        6.767 sec

Densities                   ....       0.000 sec  (  0.0%)
One electron gradient       ....       0.144 sec  (  2.1%)
RI-J Coulomb gradient       ....       0.904 sec  ( 13.4%)
XC gradient                 ....       4.454 sec  ( 65.8%)
CPCM gradient               ....       1.261 sec  ( 18.6%)
   A-Matrix (El+Nuc)        ....       0.064 sec  (  0.9%)
   Potential                ....       1.197 sec  ( 17.7%)

Maximum memory used throughout the entire SCFGRAD-calculation: 23.4 MB
------------------------------------------------------------------------------
                         ORCA GEOMETRY RELAXATION STEP
------------------------------------------------------------------------------

Reading the OPT-File                    .... done
Getting information on internals        .... done
Copying old internal coords+grads       .... done
Making the new internal coordinates     .... (2022 redundants) done
Validating the new internal coordinates .... (2022 redundants) done
Calculating the B-matrix                .... done
Calculating the G,G- and P matrices     .... done
Transforming gradient to internals      .... done
Projecting the internal gradient        .... done
Number of atoms                         ....  19
Number of internal coordinates          .... 115
Current Energy                          .... -2845.814201020 Eh
Current gradient norm                   ....     0.173939222 Eh/bohr
Maximum allowed component of the step   ....  0.300
Current trust radius                    ....  0.300
Evaluating the initial hessian          ....  (Almloef) done
Projecting the Hessian                  .... done
Forming the augmented Hessian           .... done
Diagonalizing the augmented Hessian     .... done
Last element of RFO vector              ....  0.925653121
Lowest eigenvalues of augmented Hessian:
 -0.033407364  0.010813727  0.010899438  0.011601186  0.014613263
Length of the computed step             ....  0.408763518
Warning: the length of the step is outside the trust region - taking restricted step instead
The input lambda is                     ....     0.009761
   iter:   5  x=   -0.012660  g=   18.377530 f(x)=     0.247099
   iter:  10  x=   -0.100802  g=    0.676480 f(x)=     0.000020
The output lambda is                    ....    -0.100802 (12 iterations)
The final length of the internal step   ....  0.300000000
Converting the step to Cartesian space:
 Initial RMS(Int)=    0.0279751442
Transforming coordinates:
 Iter   0:  RMS(Cart)=    0.0265288916 RMS(Int)=    0.0282281595
done
Storing new coordinates                 .... done

                                .--------------------.
          ----------------------|Geometry convergence|-------------------------
          Item                value                   Tolerance       Converged
          ---------------------------------------------------------------------
          RMS gradient        0.0080017897            0.0001000000      NO
          MAX gradient        0.0408577555            0.0003000000      NO
          RMS step            0.0279751442            0.0020000000      NO
          MAX step            0.1226353155            0.0040000000      NO
          -------------------------------------------------------------------------
          ........................................................
          Max(Bonds)      0.0649      Max(Angles)    4.76
          Max(Dihed)        2.98      Max(Improp)    0.00
          ---------------------------------------------------------------------

The optimization has not yet converged - more geometry cycles are needed


    ---------------------------------------------------------------------------
                         Redundant Internal Coordinates
                            (Angstroem and degrees)

        Definition                    Value    dE/dq     Step     New-Value
    ----------------------------------------------------------------------------
     1. B(C   1,C   0)                1.5497  0.009492 -0.0103    1.5394   
     2. B(H   2,C   0)                1.2902 -0.027191  0.0600    1.3502   
     3. B(H   3,C   0)                1.1365  0.014527 -0.0190    1.1175   
     4. B(H   4,C   0)                1.1207 -0.001732  0.0022    1.1229   
     5. B(C   5,C   1)                1.5352 -0.000564 -0.0009    1.5343   
     6. B(C   7,C   5)                1.5332 -0.000124  0.0001    1.5333   
     7. B(H   8,C   5)                1.1126 -0.001898  0.0016    1.1142   
     8. B(H   9,C   5)                1.1128  0.000242 -0.0003    1.1125   
     9. B(C  10,C   7)                1.5242 -0.006248  0.0069    1.5311   
    10. B(C  10,H   6)                1.1116  0.000762 -0.0009    1.1107   
    11. B(H  11,C   7)                1.1118  0.000376 -0.0005    1.1113   
    12. B(H  12,C   7)                1.1128  0.000319 -0.0004    1.1124   
    13. B(H  13,C  10)                1.1111  0.000561 -0.0007    1.1104   
    14. B(H  14,C  10)                1.1116  0.001586 -0.0019    1.1097   
    15. B(H  15,C   1)                1.1128  0.002428 -0.0030    1.1099   
    16. B(O  16,H   2)                1.1166  0.040858 -0.0649    1.0517   
    17. B(O  16,C   0)                1.6650  0.023388 -0.0398    1.6252   
    18. B(H  17,H   8)                3.4344  0.000909 -0.0043    3.4301   
    19. B(H  17,H   2)                3.1791  0.010250 -0.0147    3.1644   
    20. B(H  17,O  16)                3.0077 -0.013121  0.0330    3.0406   
    21. B(Br 18,C   1)                1.9464 -0.007926  0.0113    1.9577   
    22. A(H   3,C   0,O  16)           99.64 -0.009351    1.69    101.33   
    23. A(H   2,C   0,O  16)           42.06  0.011235   -1.89     40.16   
    24. A(H   4,C   0,O  16)          129.76  0.022175   -3.95    125.80   
    25. A(C   1,C   0,H   4)          105.26 -0.014045    2.14    107.40   
    26. A(C   1,C   0,O  16)          114.19  0.004555   -1.05    113.15   
    27. A(C   1,C   0,H   2)          113.87  0.005762   -1.32    112.54   
    28. A(H   3,C   0,H   4)           96.54 -0.005850    1.77     98.31   
    29. A(H   2,C   0,H   3)          132.21 -0.000221    0.15    132.36   
    30. A(C   1,C   0,H   3)          107.75 -0.003551    0.83    108.58   
    31. A(H   2,C   0,H   4)           94.30  0.012795   -2.70     91.60   
    32. A(C   0,C   1,Br 18)          110.25  0.006231   -1.32    108.93   
    33. A(C   5,C   1,H  15)          109.01 -0.002300    0.45    109.47   
    34. A(C   5,C   1,Br 18)          112.08  0.001395   -0.49    111.59   
    35. A(C   0,C   1,C   5)          112.31 -0.003961    0.77    113.08   
    36. A(H  15,C   1,Br 18)          106.41  0.000498   -0.07    106.34   
    37. A(C   0,C   1,H  15)          106.44 -0.001952    0.70    107.14   
    38. A(O  16,H   2,H  17)           71.04 -0.011309    2.49     73.53   
    39. A(C   0,H   2,H  17)          143.84 -0.003511    0.16    144.00   
    40. A(C   0,H   2,O  16)           87.23  0.010842   -2.87     84.36   
    41. A(H   8,C   5,H   9)          107.42  0.001567   -0.33    107.09   
    42. A(C   7,C   5,H   9)          110.56  0.000291   -0.07    110.49   
    43. A(C   1,C   5,H   9)          109.68  0.000635   -0.12    109.56   
    44. A(C   1,C   5,H   8)          108.09  0.000603   -0.18    107.91   
    45. A(C   7,C   5,H   8)          106.55 -0.001554    0.37    106.92   
    46. A(C   1,C   5,C   7)          114.24 -0.001403    0.30    114.55   
    47. A(C   5,C   7,C  10)          113.45  0.001297   -0.13    113.32   
    48. A(H  11,C   7,H  12)          107.94  0.003748   -0.61    107.34   
    49. A(C  10,C   7,H  12)          107.78 -0.005465    0.74    108.53   
    50. A(C   5,C   7,H  12)          108.92  0.001024   -0.10    108.82   
    51. A(C  10,C   7,H  11)          107.66 -0.003673    0.61    108.27   
    52. A(C   5,C   7,H  11)          110.90  0.002983   -0.51    110.39   
    53. A(C   5,H   8,H  17)          154.90 -0.001617    0.65    155.55   
    54. A(H   6,C  10,C   7)          111.38 -0.000780    0.10    111.48   
    55. A(H  13,C  10,H  14)          108.06  0.001969   -0.24    107.82   
    56. A(C   7,C  10,H  14)          109.68 -0.003165    0.48    110.16   
    57. A(H   6,C  10,H  14)          107.83  0.001297   -0.14    107.68   
    58. A(C   7,C  10,H  13)          111.39 -0.000580    0.07    111.46   
    59. A(H   6,C  10,H  13)          108.37  0.001452   -0.28    108.09   
    60. A(H   2,O  16,H  17)           88.41  0.004640   -1.33     87.08   
    61. A(C   0,O  16,H  17)          131.04 -0.015268    2.82    133.86   
    62. A(C   0,O  16,H   2)           50.71 -0.022077    4.76     55.48   
    63. A(H   2,H  17,H   8)           42.46  0.000323   -0.04     42.42   
    64. A(H   8,H  17,O  16)           55.52  0.007380   -1.44     54.08   
    65. A(H   2,H  17,O  16)           20.55  0.006669   -1.16     19.39   
    66. D(C   5,C   1,C   0,H   4)    -65.22 -0.013490    2.97    -62.25   
    67. D(H  15,C   1,C   0,H   2)    -82.57  0.002571   -1.00    -83.56   
    68. D(C   5,C   1,C   0,O  16)     82.92  0.010736   -2.11     80.81   
    69. D(C   5,C   1,C   0,H   3)   -167.41 -0.000354   -0.11   -167.52   
    70. D(H  15,C   1,C   0,H   4)    175.56 -0.007194    1.53    177.09   
    71. D(C   5,C   1,C   0,H   2)     36.66 -0.003725    0.44     37.10   
    72. D(H  15,C   1,C   0,H   3)     73.36  0.005942   -1.55     71.81   
    73. D(H  17,H   2,C   0,H   4)    157.20 -0.004594    0.29    157.49   
    74. D(H  17,H   2,C   0,C   1)     48.42  0.003469   -0.46     47.96   
    75. D(H  17,H   2,C   0,H   3)    -99.94 -0.000602    0.22    -99.73   
    76. D(O  16,H   2,C   0,H   4)   -150.93 -0.004405    0.08   -150.85   
    77. D(O  16,H   2,C   0,H   3)    -48.08 -0.000414    0.01    -48.07   
    78. D(O  16,H   2,C   0,C   1)    100.29  0.003658   -0.67     99.61   
    79. D(C   7,C   5,C   1,H  15)    -51.20 -0.001494    0.38    -50.81   
    80. D(C   7,C   5,C   1,C   0)   -168.90  0.004800   -1.24   -170.15   
    81. D(H   8,C   5,C   1,Br 18)   -175.25 -0.003910    0.81   -174.44   
    82. D(H   8,C   5,C   1,H  15)     67.22 -0.003897    0.91     68.12   
    83. D(H   8,C   5,C   1,C   0)    -50.49  0.002397   -0.72    -51.21   
    84. D(C   7,C   5,C   1,Br 18)     66.33 -0.001507    0.29     66.62   
    85. D(H  11,C   7,C   5,H   9)     63.11 -0.001180    0.23     63.34   
    86. D(H  11,C   7,C   5,H   8)    179.54 -0.000050    0.01    179.55   
    87. D(H  11,C   7,C   5,C   1)    -61.18 -0.001193    0.22    -60.96   
    88. D(C  10,C   7,C   5,H   9)    -58.20  0.000470   -0.09    -58.29   
    89. D(C  10,C   7,C   5,C   1)    177.52  0.000457   -0.11    177.41   
    90. D(C  10,C   7,C   5,H   8)     58.23  0.001600   -0.31     57.92   
    91. D(H  17,H   8,C   5,H   9)   -123.72 -0.001061    0.25   -123.47   
    92. D(H  17,H   8,C   5,C   7)    117.78 -0.001392    0.32    118.09   
    93. D(H  17,H   8,C   5,C   1)     -5.44  0.000853   -0.16     -5.60   
    94. D(H   6,C  10,C   7,H  12)     61.69 -0.000878    0.21     61.90   
    95. D(H   6,C  10,C   7,H  11)    177.90 -0.001189    0.20    178.10   
    96. D(H   6,C  10,C   7,C   5)    -58.99  0.000812   -0.09    -59.09   
[...]
     8. B(H   9,C   5)                1.1123 -0.000121  0.0002    1.1125   
     9. B(C  10,C   7)                1.5345  0.002440 -0.0014    1.5330   
    10. B(C  10,H   6)                1.1099 -0.000259  0.0000    1.1099   
    11. B(H  11,C   7)                1.1112 -0.000146  0.0001    1.1113   
    12. B(H  12,C   7)                1.1123 -0.000146  0.0002    1.1124   
    13. B(H  13,C  10)                1.1099 -0.000207  0.0001    1.1100   
    14. B(H  14,C  10)                1.1082 -0.000503 -0.0000    1.1082   
    15. B(H  15,C   1)                1.1068 -0.000763 -0.0002    1.1067   
    16. B(O  16,H   2)                0.9464 -0.009843 -0.0006    0.9458   
    17. B(O  16,C   0)                1.5006  0.007163 -0.0695    1.4311   
    18. B(H  17,H   8)                3.4216  0.000071 -0.0025    3.4191   
    19. B(H  17,H   2)                3.0692  0.009909 -0.0752    2.9940   
    20. B(H  17,O  16)                3.1612 -0.011106  0.0824    3.2435   
    21. B(Br 18,C   1)                1.9961 -0.001802  0.0200    2.0162   
    22. A(H   3,C   0,O  16)          107.28 -0.001806    2.68    109.96   
    23. A(H   2,C   0,O  16)           35.74 -0.001111   -1.07     34.66   
    24. A(H   4,C   0,O  16)          113.05  0.002739   -5.20    107.85   
    25. A(C   1,C   0,H   4)          112.36  0.001329    0.88    113.23   
    26. A(C   1,C   0,O  16)          110.12  0.000603   -1.29    108.83   
    27. A(C   1,C   0,H   2)          108.70  0.001661   -1.87    106.83   
    28. A(H   3,C   0,H   4)          103.49 -0.003232    2.93    106.43   
    29. A(H   2,C   0,H   3)          134.58 -0.002744    1.83    136.41   
    30. A(C   1,C   0,H   3)          110.21 -0.000067    0.46    110.67   
    31. A(H   2,C   0,H   4)           82.15  0.004321   -4.64     77.51   
    32. A(C   0,C   1,Br 18)          106.96 -0.000759   -0.41    106.55   
    33. A(C   5,C   1,H  15)          110.91 -0.000389    0.55    111.46   
    34. A(C   5,C   1,Br 18)          110.18  0.000741   -0.62    109.55   
    35. A(C   0,C   1,C   5)          114.58  0.000425    0.64    115.22   
    36. A(H  15,C   1,Br 18)          105.33  0.001095   -0.90    104.43   
    37. A(C   0,C   1,H  15)          108.42 -0.001076    0.57    108.99   
    38. A(O  16,H   2,H  17)           86.81 -0.010467    9.44     96.25   
    39. A(C   0,H   2,H  17)          143.82  0.003590   -1.65    142.17   
    40. A(C   0,H   2,O  16)           67.84  0.015921  -13.01     54.83   
    41. A(H   8,C   5,H   9)          106.25  0.000049   -0.34    105.91   
    42. A(C   7,C   5,H   9)          110.45 -0.000140    0.03    110.48   
    43. A(C   1,C   5,H   9)          109.16  0.000033   -0.16    109.00   
    44. A(C   1,C   5,H   8)          107.73 -0.000112   -0.33    107.40   
    45. A(C   7,C   5,H   8)          107.69  0.000198    0.36    108.05   
    46. A(C   1,C   5,C   7)          115.14 -0.000020    0.38    115.52   
    47. A(C   5,C   7,C  10)          112.78 -0.000176   -0.13    112.64   
    48. A(H  11,C   7,H  12)          105.98 -0.000317   -0.49    105.49   
    49. A(C  10,C   7,H  12)          110.13  0.000798    0.46    110.59   
    50. A(C   5,C   7,H  12)          108.76 -0.000369    0.01    108.76   
    51. A(C  10,C   7,H  11)          109.74  0.000034    0.58    110.32   
    52. A(C   5,C   7,H  11)          109.23  0.000015   -0.47    108.76   
    53. A(C   5,H   8,H  17)          157.74 -0.001728    1.78    159.52   
    54. A(H   6,C  10,C   7)          111.53  0.000331   -0.05    111.47   
    55. A(H  13,C  10,H  14)          107.32 -0.000384   -0.11    107.21   
    56. A(C   7,C  10,H  14)          111.38  0.000068    0.49    111.87   
    57. A(H   6,C  10,H  14)          107.44 -0.000327   -0.03    107.42   
    58. A(C   7,C  10,H  13)          111.37  0.000325   -0.09    111.29   
    59. A(H   6,C  10,H  13)          107.58 -0.000064   -0.24    107.34   
    60. A(H   2,O  16,H  17)           75.79  0.011791   -9.32     66.47   
    61. A(C   0,O  16,H  17)          141.84 -0.001598    3.56    145.40   
    62. A(C   0,O  16,H   2)           76.43 -0.014809   14.08     90.51   
    63. A(H   2,H  17,H   8)           41.93  0.000062   -0.23     41.70   
    64. A(H   8,H  17,O  16)           49.90  0.001474   -2.14     47.76   
    65. A(H   2,H  17,O  16)           17.39 -0.001324   -0.12     17.28   
    66. D(C   5,C   1,C   0,H   4)    -52.35 -0.003483    4.36    -48.00   
    67. D(H  15,C   1,C   0,H   2)    -87.78  0.003567   -3.16    -90.93   
    68. D(C   5,C   1,C   0,O  16)     74.63  0.001649   -3.03     71.60   
    69. D(C   5,C   1,C   0,H   3)   -167.21 -0.000242   -0.27   -167.47   
    70. D(H  15,C   1,C   0,H   4)   -176.82 -0.002435    2.71   -174.11   
    71. D(C   5,C   1,C   0,H   2)     36.69  0.002519   -1.51     35.18   
    72. D(H  15,C   1,C   0,H   3)     68.33  0.000806   -1.92     66.41   
    73. D(H  17,H   2,C   0,H   4)    160.92 -0.001608    2.24    163.16   
    74. D(H  17,H   2,C   0,C   1)     49.90 -0.004320    2.73     52.63   
    75. D(H  17,H   2,C   0,H   3)    -97.85 -0.002078    1.99    -95.86   
    76. D(O  16,H   2,C   0,H   4)   -150.27  0.001354   -0.34   -150.61   
    77. D(O  16,H   2,C   0,H   3)    -49.04  0.000884   -0.58    -49.62   
    78. D(O  16,H   2,C   0,C   1)     98.71 -0.001358    0.16     98.87   
    79. D(C   7,C   5,C   1,H  15)    -49.55 -0.000761    0.73    -48.83   
    80. D(C   7,C   5,C   1,C   0)   -172.69  0.000662   -0.98   -173.67   
    81. D(H   8,C   5,C   1,Br 18)   -173.17  0.000957    0.04   -173.14   
    82. D(H   8,C   5,C   1,H  15)     70.61 -0.000603    1.20     71.81   
    83. D(H   8,C   5,C   1,C   0)    -52.53  0.000821   -0.51    -53.04   
    84. D(C   7,C   5,C   1,Br 18)     66.66  0.000798   -0.43     66.23   
    85. D(H  11,C   7,C   5,H   9)     63.91 -0.000153    0.29     64.20   
    86. D(H  11,C   7,C   5,H   8)    179.53 -0.000056    0.11    179.64   
    87. D(H  11,C   7,C   5,C   1)    -60.28 -0.000068    0.20    -60.08   
    88. D(C  10,C   7,C   5,H   9)    -58.40 -0.000088   -0.02    -58.42   
    89. D(C  10,C   7,C   5,C   1)    177.41 -0.000003   -0.11    177.30   
    90. D(C  10,C   7,C   5,H   8)     57.22  0.000009   -0.20     57.02   
    91. D(H  17,H   8,C   5,H   9)   -122.59 -0.000748    0.62   -121.97   
    92. D(H  17,H   8,C   5,C   7)    119.06 -0.000711    0.58    119.64   
    93. D(H  17,H   8,C   5,C   1)     -5.71 -0.000740    0.09     -5.61   
    94. D(H   6,C  10,C   7,H  12)     62.40 -0.000197    0.23     62.64   
    95. D(H   6,C  10,C   7,H  11)    178.70 -0.000098    0.26    178.96   
    96. D(H   6,C  10,C   7,C   5)    -59.28 -0.000175   -0.02    -59.30   
    97. D(H  13,C  10,C   7,H  12)   -177.39  0.000170   -0.17   -177.56   
    98. D(H  13,C  10,C   7,H  11)    -61.10  0.000269   -0.14    -61.24   
    99. D(H  13,C  10,C   7,C   5)     60.92  0.000192   -0.42     60.49   
   100. D(H  17,O  16,H   2,C   0)   -153.58 -0.000862   -0.49   -154.07   
   101. D(C   0,O  16,H   2,H  17)    153.58  0.000862    0.49    154.07   
   102. D(H  17,O  16,C   0,H   3)   -170.00 -0.001702    1.83   -168.17   
   103. D(H  17,O  16,C   0,H   2)     44.28 -0.000764    1.53     45.82   
   104. D(H  17,O  16,C   0,C   1)    -50.05 -0.002526    3.23    -46.82   
   105. D(H   2,O  16,C   0,H   4)     32.27  0.002609   -2.07     30.20   
   106. D(H   2,O  16,C   0,H   3)    145.72 -0.000938    0.29    146.01   
   107. D(H   2,O  16,C   0,C   1)    -94.33 -0.001762    1.70    -92.63   
   108. D(H   8,H  17,O  16,H   2)     55.59 -0.006180    6.23     61.82   
   109. D(H   8,H  17,O  16,C   0)     11.16  0.001021   -1.03     10.12   
   110. D(H   2,H  17,O  16,C   0)    -44.43  0.007200   -7.26    -51.69   
   111. D(H   2,H  17,H   8,C   5)     46.74 -0.004125    2.51     49.25   
   112. D(O  16,H  17,H   8,C   5)     25.08 -0.000739    0.77     25.85   
   113. D(H   8,H  17,H   2,O  16)   -109.21 -0.008780    7.74   -101.47   
   114. D(H   8,H  17,H   2,C   0)    -64.95  0.000636   -0.17    -65.11   
   115. D(O  16,H  17,H   2,C   0)     44.27  0.009415   -7.91     36.36   
    ----------------------------------------------------------------------------

Geometry step timings:
Preparation and reading OPT file:      0.000 s ( 0.460 %)
Internal coordinates            :      0.000 s ( 1.769 %)
B/P matrices and projection     :      0.008 s (40.463 %)
Hessian update/contruction      :      0.005 s (24.317 %)
Making the step                 :      0.003 s (18.182 %)
Converting the step to Cartesian:      0.000 s ( 0.727 %)
Storing new data                :      0.000 s ( 1.700 %)
Checking convergence            :      0.000 s ( 1.031 %)
Final printing                  :      0.002 s (11.346 %)
Total time                      :      0.019 s

Time for energy+gradient        :     32.109 s
Time for complete geometry iter :     32.961 s

         *************************************************************
         *                GEOMETRY OPTIMIZATION CYCLE   6            *
         *************************************************************
---------------------------------
CARTESIAN COORDINATES (ANGSTROEM)
---------------------------------
  C     -3.424174    0.741107   -0.035473
  C     -2.122339    1.369399    0.436527
  H     -3.106318   -0.942618   -0.279516
  H     -4.289163    1.350946    0.278474
  H     -3.489881    0.647731   -1.142971
  C     -0.858156    0.784507   -0.185857
  H      1.667432   -0.475041   -0.078065
  C      0.464003    1.301797    0.393670
  H     -0.894416   -0.322869   -0.036456
  H     -0.889008    0.944358   -1.286334
  C      1.688181    0.623872   -0.232460
  H      0.513512    2.401893    0.244332
  H      0.454643    1.151694    1.495904
  H      1.732374    0.803329   -1.326985
  H      2.635806    1.001786    0.200249
  H     -2.086328    1.332213    1.541977
  O     -3.517459   -0.572348    0.508493
  H     -1.982898   -3.377779    1.049262
  Br    -2.240066    3.335552    0.006083

----------------------------
CARTESIAN COORDINATES (A.U.)
----------------------------
  NO LB      ZA    FRAG     MASS         X           Y           Z
   0 C     6.0000    0    12.011   -6.470751    1.400490   -0.067035
   1 C     6.0000    0    12.011   -4.010639    2.587790    0.824917
   2 H     1.0000    0     1.008   -5.870090   -1.781290   -0.528208
   3 H     1.0000    0     1.008   -8.105342    2.552918    0.526239
   4 H     1.0000    0     1.008   -6.594920    1.224034   -2.159902
   5 C     6.0000    0    12.011   -1.621680    1.482503   -0.351219
   6 H     1.0000    0     1.008    3.150990   -0.897698   -0.147521
   7 C     6.0000    0    12.011    0.876838    2.460039    0.743928
   8 H     1.0000    0     1.008   -1.690201   -0.610133   -0.068892
   9 H     1.0000    0     1.008   -1.679981    1.784578   -2.430820
  10 C     6.0000    0    12.011    3.190200    1.178948   -0.439285
  11 H     1.0000    0     1.008    0.970396    4.538920    0.461721
  12 H     1.0000    0     1.008    0.859150    2.176386    2.826848
  13 H     1.0000    0     1.008    3.273712    1.518073   -2.507638
  14 H     1.0000    0     1.008    4.980951    1.893100    0.378416
  15 H     1.0000    0     1.008   -3.942588    2.517517    2.913913
  16 O     8.0000    0    15.999   -6.647034   -1.081582    0.960912
  17 H     1.0000    0     1.008   -3.747134   -6.383077    1.982818
  18 Br   35.0000    0    79.900   -4.233111    6.303279    0.011495

--------------------------------
INTERNAL COORDINATES (ANGSTROEM)
--------------------------------
 C      0   0   0     0.000000000000     0.00000000     0.00000000
 C      1   0   0     1.520628283201     0.00000000     0.00000000
 H      1   2   0     1.730757267317   106.76765370     0.00000000
 H      1   2   3     1.103934215714   110.74977604   156.90544105
 H      1   2   3     1.113367875711   113.19985980   276.35177159
 C      2   1   3     1.525653547076   115.11053850    35.58558811
 H      6   2   1     2.824300942231   153.68624973   237.99108031
 C      6   2   1     1.533474512194   115.52714499   186.43491408
 H      6   2   1     1.117996262548   107.35796486   307.16829744
 H      6   2   1     1.112454399893   108.99505572    61.42244724
 C      7   6   2     1.109900499579    64.52321522   258.72602739
 H      8   6   2     1.111289556876   108.75732046   299.93184959
 H      8   6   2     1.112446904785   108.76439349    54.34304234
 H     11   7   6     1.110019607450   107.33628436   266.40442896
 H     11   7   6     1.108173144634   107.41655743   151.39696149
 H      2   1   3     1.106660679384   108.90698684   269.44951691
 O      3   1   2     0.962857140838    55.39466060    98.49962121
 H      3   1   2     2.992946764833   142.92594158    52.27848152
 Br     2   1   3     2.016158878564   106.65879939   157.36063863

---------------------------
INTERNAL COORDINATES (A.U.)
---------------------------
 C      0   0   0     0.000000000000     0.00000000     0.00000000
 C      1   0   0     2.873571006745     0.00000000     0.00000000
 H      1   2   0     3.270657239523   106.76765370     0.00000000
 H      1   2   3     2.086133337564   110.74977604   156.90544105
 H      1   2   3     2.103960371400   113.19985980   276.35177159
 C      2   1   3     2.883067379219   115.11053850    35.58558811
 H      6   2   1     5.337155300593   153.68624973   237.99108031
 C      6   2   1     2.897846861395   115.52714499   186.43491408
 H      6   2   1     2.112706754964   107.35796486   307.16829744
 H      6   2   1     2.102234152274   108.99505572    61.42244724
 C      7   6   2     2.097407980107    64.52321522   258.72602739
 H      8   6   2     2.100032917982   108.75732046   299.93184959
 H      8   6   2     2.102219988572   108.76439349    54.34304234
 H     11   7   6     2.097633061363   107.33628436   266.40442896
 H     11   7   6     2.094143752325   107.41655743   151.39696149
 H      2   1   3     2.091285607215   108.90698684   269.44951691
 O      3   1   2     1.819536302274    55.39466060    98.49962121
 H      3   1   2     5.655849718940   142.92594158    52.27848152
 Br     2   1   3     3.809988122960   106.65879939   157.36063863

------------------------------------------------------------------------------
                   ___                                                        
                  /   \      - P O W E R E D   B Y -                         
                 /     \                                                     
                 |  |  |   _    _      __       _____    __    __             
                 |  |  |  | |  | |    /  \     |  _  \  |  |  /  |          
                  \  \/   | |  | |   /    \    | | | |  |  | /  /          
                 / \  \   | |__| |  /  /\  \   | |_| |  |  |/  /          
                |  |  |   |  __  | /  /__\  \  |    /   |      \           
                |  |  |   | |  | | |   __   |  |    \   |  |\   \          
                \     /   | |  | | |  |  |  |  | |\  \  |  | \   \       
                 \___/    |_|  |_| |__|  |__|  |_| \__\ |__|  \__/        
                                                                              
                      - O R C A' S   B I G   F R I E N D -                    
                                      &                                       
                       - I N T E G R A L  F E E D E R -                       
                                                                              
 v1 FN, 2020, v2 2021, v3 2022-2024                                           
------------------------------------------------------------------------------


----------------------
SHARK INTEGRAL PACKAGE
----------------------

Number of atoms                             ...     19
Number of basis functions                   ...    176
Number of shells                            ...     84
Maximum angular momentum                    ...      2
Integral batch strategy                     ... SHARK/LIBINT Hybrid
RI-J (if used) integral strategy            ... SPLIT-RIJ (Revised 2003 algorithm where possible)
Printlevel                                  ...      1
Contraction scheme used                     ... SEGMENTED contraction
Prescreening option                         ... SCHWARTZ
   Thresh                                   ... 2.500e-11
   Tcut                                     ... 2.500e-12
   Tpresel                                  ... 2.500e-12 
Coulomb Range Separation                    ... NOT USED
Exchange Range Separation                   ... NOT USED
Multipole approximations                    ... NOT USED
Finite Nucleus Model                        ... NOT USED
CABS basis                                  ... NOT available
Auxiliary Coulomb fitting basis             ... AVAILABLE
   # of basis functions in Aux-J            ...    484
   # of shells in Aux-J                     ...    168
   Maximum angular momentum in Aux-J        ...      4
Auxiliary J/K fitting basis                 ... NOT available
Auxiliary Correlation fitting basis         ... NOT available
Auxiliary 'external' fitting basis          ... NOT available

Checking pre-screening integrals            ... done (  0.0 sec) Dimension = 84
   => SHARK Basis and OBASIS are compatible. Storing Pre-screening
Shell pair information
Shell pair cut-off parameter TPreSel        ...   2.5e-12
Total number of shell pairs                 ...      3570
Shell pairs after pre-screening             ...      3204
Total number of primitive shell pairs       ...     13357
Primitive shell pairs kept                  ...      8561
          la=0 lb=0:   1036 shell pairs
          la=1 lb=0:   1193 shell pairs
          la=1 lb=1:    350 shell pairs
          la=2 lb=0:    375 shell pairs
          la=2 lb=1:    212 shell pairs
          la=2 lb=2:     38 shell pairs

Checking whether 4 symmetric matrices of dimension 176 fit in memory
:Max Core in MB      =   2000.00
 MB in use           =      6.87
 MB left             =   1993.13
 MB needed           =      0.48
 Data fit in memory  = YES
Calculating RI/J V-Matrix + Cholesky decomp.... done (  0.0 sec)
Calculating Nuclear repulsion               ... done (  0.0 sec) ENN=    525.826710907359 Eh

Diagonalization of the overlap matrix:
Smallest eigenvalue                        ... 1.420e-03
Time for diagonalization                   ...    0.004 sec
Threshold for overlap eigenvalues          ... 1.000e-07
Number of eigenvalues below threshold      ... 0
Time for construction of square roots      ...    0.002 sec
Total time needed                          ...    0.006 sec

-------------------
DFT GRID GENERATION
-------------------

General Integration Accuracy     IntAcc      ... 4.388
Radial Grid Type                 RadialGrid  ... OptM3 with GC (2021)
Angular Grid (max. ang.)         AngularGrid ... 4 (Lebedev-302)
Angular grid pruning method      GridPruning ... 4 (adaptive)
Weight generation scheme         WeightScheme... mBecke (2022)
Basis function cutoff            BFCut       ... 1.0000e-11
Integration weight cutoff        WCut        ... 1.0000e-14
Partially contracted basis set               ... off
Rotationally invariant grid construction     ... off
Angular grids for H and He will be reduced by one unit
Core-polarized basis detected: some atoms will have their core
                               angular grid increased.

Total number of grid points                  ...    85941
Total number of batches                      ...     1353
Average number of points per batch           ...       63
Average number of grid points per atom       ...     4523
Grids setup in   2.6 sec
Initializing property integral containers    ... done (  0.0 sec)

SHARK setup successfully completed in   2.8 seconds

Maximum memory used throughout the entire STARTUP-calculation: 40.6 MB
