
                                 *****************
                                 * O   R   C   A *
                                 *****************

                                            #,                                       
                                            ###                                      
                                            ####                                     
                                            #####                                    
                                            ######                                   
                                           ########,                                 
                                     ,,################,,,,,                         
                               ,,#################################,,                 
                          ,,##########################################,,             
                       ,#########################################, ''#####,          
                    ,#############################################,,   '####,        
                  ,##################################################,,,,####,       
                ,###########''''           ''''###############################       
              ,#####''   ,,,,##########,,,,          '''####'''          '####       
            ,##' ,,,,###########################,,,                        '##       
           ' ,,###''''                  '''############,,,                           
         ,,##''                                '''############,,,,        ,,,,,,###''
      ,#''                                            '''#######################'''  
     '                                                          ''''####''''         
             ,#######,   #######,   ,#######,      ##                                
            ,#'     '#,  ##    ##  ,#'     '#,    #''#        ,####,    ,#,          
            ##       ##  ##   ,#'  ##            #'  '#       #'       ,# #          
            ##       ##  #######   ##           ,######,      #####,      #          
            '#,     ,#'  ##    ##  '#,     ,#' ,#      #,     #,   #      #          
             '#######'   ##     ##  '#######'  #'      '#     '####' #    #          



                #########################################################
                #                        -***-                          #
                #          Department of theory and spectroscopy        #
                #                                                       #
                #                      Frank Neese                      #
                #                                                       #
                #     Directorship, Architecture, Infrastructure        #
                #                    SHARK, DRIVERS                     #
                #        Core code/Algorithms in most modules           #
                #                                                       #
                #        Max Planck Institute fuer Kohlenforschung      #
                #                Kaiser Wilhelm Platz 1                 #
                #                 D-45470 Muelheim/Ruhr                 #
                #                      Germany                          #
                #                                                       #
                #                  All rights reserved                  #
                #                        -***-                          #
                #########################################################


                         Program Version 6.1.0  -  RELEASE   -
                                (GIT: $679e74b7b5$)
                          ($2025-06-10 18:02:51 +0200$)


 With contributions from (in alphabetic order):
[Max-Planck-Institut fuer Kohlenforschung]                               
  Daniel Aravena         : Magnetic Suceptibility                        
  Michael Atanasov       : Ab Initio Ligand Field Theory (pilot matlab implementation)
  Alexander A. Auer      : GIAO ZORA, VPT2 properties, NMR spectrum      
  Ute Becker             : All parallelization in ORCA, NUMFREQ, NUMCALC 
  Giovanni Bistoni       : ED, misc. LED, open-shell LED, HFLD           
  Dmytro Bykov           : pre 5.0 version of the SCF Hessian            
  Marcos Casanova-Páez   : Triplet and SCS-CIS(D). UHF-(DLPNO)-IP/EA/STEOM-CCSD. UHF-CVS-IP/STEOM-CCSD   
  Vijay G. Chilkuri      : MRCI spin determinant printing, contributions to CSF-ICE 
  Pauline Colinet        : FMM embedding                                 
  Dipayan Datta          : RHF DLPNO-CCSD density                        
  Achintya Kumar Dutta   : EOM-CC, STEOM-CC                              
  Nicolas Foglia         : Exact transition moments, OPA infrastructure, MCD improvements    
  Dmitry Ganyushin       : Spin-Orbit,Spin-Spin,Magnetic field MRCI      
  Miquel Garcia-Rates    : C-PCM and meta-GGA Hessian, CCSD/C-PCM, Gaussian charge scheme 
  Tiago L. C. Gouveia    : GS-ROHF, GS-ROCIS                             
  Yang Guo               : DLPNO-NEVPT2, F12-NEVPT2, CIM, IAO-localization        
  Andreas Hansen         : Spin unrestricted coupled pair/coupled cluster methods 
  Ingolf Harden          : AUTO-CI MPn and infrastructure                
  Benjamin Helmich-Paris : MC-RPA, TRAH-(SCF,CASSCF), AVAS, COSX integrals, SCF dyn. polar., MC-PDFT, srDFT 
  Lee Huntington         : MR-EOM, pCC                                   
  Robert Izsak           : Overlap fitted RIJCOSX, COSX-SCS-MP3, EOM     
  Riya Kayal             : Wick's Theorem for AUTO-CI, AUTO-CI UHF-CCSDT 
  Emily Kempfer          : AUTO-CI RHF CISDT and CCSDT, approximate NEVPT4
  Christian Kollmar      : KDIIS, OOCD, Brueckner-CCSD(T), CCSD density, CASPT2, CASPT2-K, improved NEVPT2 
  Axel Koslowski         : Symmetry handling                             
  Simone Kossmann        : meta-GGA functionals, TD-DFT gradient, OOMP2, (MP2 Hessian; deprecated post 5.0) 
  Lucas Lang             : DCDCAS, Hyperfine gauge corrections, ICE-SOC+SSC
  Marvin Lechner         : AUTO-CI (C++ implementation), FIC-MRCC        
  Spencer Leger          : CASSCF response                               
  Dagmar Lenk            : GEPOL surface, SMD, ORCA-2-JSON               
  Dimitrios Liakos       : Extrapolation schemes; Compound Job, Property file
  Dimitrios Manganas     : Further ROCIS development; embedding schemes. LFT, Crystal Embedding 
  Dimitrios Pantazis     : SARC Basis sets                               
  Anastasios Papadopoulos: AUTO-CI, single reference methods and gradients 
  Taras Petrenko         : pre 6.0 DFT Hessian and TD-DFT gradient,  ECA, NRVS 
  Petra Pikulova         : Analytic Raman intensities                    
  Peter Pinski           : DLPNO-MP2, DLPNO-MP2 Gradient                 
  Shashank Vittal Rao    : ES-AILFT, MagRelax                            
  Christoph Reimann      : Effective Core Potentials                     
  Marius Retegan         : Local ZFS, SOC                                
  Christoph Riplinger    : Optimizer, TS searches, QM/MM, DLPNO-CCSD(T), (RO)-DLPNO pert. Triples 
  Michael Roemelt        : Original ROCIS implementation, recursive CI coupling coefficients
  Masaaki Saitow         : Open-shell DLPNO-CCSD energy and density      
  Barbara Sandhoefer     : DKH picture change effects                    
  Yorick L. A. Schmerwitz: GMF and freeze-and-release deltaSCF, NEB S-IDPP initial path                    
  Kantharuban Sivalingam : CASSCF convergence/infrastructure, NEVPT2, NEVPT3, NEVPT4(SD), FIC-MRCI and CEPA variants
  Bernardo de Souza      : ESD, SOC TD-DFT                               
  Georgi L. Stoychev     : AutoAux, RI-MP2 NMR, DLPNO-MP2 response, X2C  
  Van Anh Tran           : RI-MP2 g-tensors                              
  Willem Van den Heuvel  : Paramagnetic NMR                              
  Zikuan Wang            : NOTCH, Electric field optimization            
  Frank Wennmohs         : Technical directorship and infrastructure     
  Hang Xu                : AUTO-CI-Response properties                   
                                                                         
[FACCTs GmbH]                                                            
  Markus Bursch, Nicolas Foglia, Miquel Garcia-Rates, Ingolf Harden, Hagen Neugebauer, Anastasios Papadopoulos, 
  Christoph Riplinger, Bernardo de Souza, Georgi L. Stoychev                                                    
                                                                 
  APM, various basis sets, CI-OPT, improved COSX, DLPNO-Multilevel,           
  DOCKER, DRACO, updates on ESD, Fragmentator, GOAT, IRC, LR-CPCM, L-BFGS, MBIS, meta-GGA TD-DFT gradient, ML-optimized integration grids, 
  MM, NACMEs, nearIR, NEB, NEB-TS, NL-DFT gradient (VV10), 2- and 3-layer-ONIOM, interface openCOSMO-RS, QMMM,   
  Crystal-QMMM, RESP, rigid body optimization, SF, symmetry and pop. for TD-DFT, various functionals, SOLVATOR                                   
                                                                         
[Other institutions]                                                     
  V. Asgeirsson          : NEB                                           
  Christoph Bannwarth    : sTDA-DFT, sTD-DFT, PBEh-3c, B97-3c, D3        
  Giovanni Bistoni       : ETS/NOCV, ADLD/ADEX, COVALED                  
  Martin Brehm           : Molecular dynamics                            
  Ronald Cardenas        : ETS/NOCV                                      
  Martina Colucci        : COVALED                                       
  Sebastian Ehlert       : rSCAN, r2SCAN, r2SCAN-3c, D4, dhf basis sets  
  Marvin Friede          : D4 for Fr, Ra, Ac-Lr                          
  Lars Goerigk           : TD-DFT with DH, B97 family of functionals     
  Stefan Grimme          : VdW corrections, initial TS optimization, DFT functionals, gCP, sTDA/sTD-DF 
  Waldemar Hujo          : DFT-NL                                        
  H. Jonsson             : NEB                                           
  Holger Kruse           : gCP                                           
  Marcel Mueller         : wB97X-3c, vDZP basis set                      
  Hagen Neugebauer       : wr2SCAN, Native XTB                           
  Gianluca Regni         : ADLD/ADEX                                     
  Tobias Risthaus        : pre 6.0 range-separated hybrid DFT and stability analysis
  Lukas Wittmann         : regularized MP2, r2SCAN double-hybrids, wr2SCAN        
                                                                         
We gratefully acknowledge several colleagues who have allowed us to      
interface, adapt or use parts of their codes:                            
  Ed Valeev, F. Pavosevic, A. Kumar             : LibInt (2-el integral package), F12 methods 
  Garnet Chan, S. Sharma, J. Yang, R. Olivares  : DMRG                   
  Ulf Ekstrom                                   : XCFun DFT Library      
  Mihaly Kallay                                 : mrcc  (arbitrary order and MRCC methods)
  Frank Weinhold                                : gennbo (NPA and NBO analysis)           
  Simon Mueller                                 : openCOSMO-RS                            
  Christopher J. Cramer and Donald G. Truhlar   : smd solvation model                     
  S Lehtola, MJT Oliveira, MAL Marques          : LibXC Library                           
  Liviu Ungur et al                             : ANISO software                          


 Your calculation uses the libint2 library for the computation of 2-el integrals
 For citations please refer to: http://libint.valeyev.net

 Your ORCA version has been built with support for libXC version: 7.0.0
 For citations please refer to: https://libxc.gitlab.io

 This ORCA versions uses:
   CBLAS   interface :  Fast vector & matrix operations
   LAPACKE interface :  Fast linear algebra routines
   SCALAPACK package :  Parallel linear algebra routines
   Shared memory     :  Shared parallel matrices


  ***********************************
  * Starting time: Sat Nov 29 12:52:13 2025
  * Host name:     Grants-Air.localdomain
  * Process ID:    20996
  * Working dir.:  /Users/grantkruttschnitt/Desktop/Github/OrcaChemistry
  ***********************************

NOTE: MaxCore=2000 MB was set to SCF,MP2,MDCI,CIPSI,MRCI,RASCI and CIS
      => If you want to overwrite this, your respective input block should be placed after the MaxCore statement


***************************************
The coordinates will be read from file: reactant_complex.xyz
***************************************


Your calculation utilizes a Nudged-Elastic-Band implementation
by V. Ásgeirsson, C. Riplinger & H. Jónsson
Please cite in your paper:
Ásgeirsson, V.; Birgisson, B. O.; Bjornsson, R.; Becker, U.; Neese, F.; Riplinger, R.;
Jónsson H. J. Chem. Theory Comput. 2021, 17, 4929-4945
   

Warning: RI is on but no J-basis has been assigned. Assigning Def2/J (nothing to worry about!)
================================================================================

----- Orbital basis set information -----
Your calculation utilizes the basis: def2-SVP
   F. Weigend and R. Ahlrichs, Phys. Chem. Chem. Phys. 7, 3297 (2005).

----- AuxJ basis set information -----
Your calculation utilizes the auxiliary basis: def2/J
   H-Rn: F. Weigend, Phys. Chem. Chem. Phys. 8, 1057 (2006).
   Fr-Lr: K. Eichkorn, F. Weigend, O. Treutler, R. Ahlrichs; Theor. Chem. Acc. 97, 119 (1997).

================================================================================
                                        WARNINGS
                       Please study these warnings very carefully!
================================================================================


WARNING: Geometry Optimization
  ===> : Switching off AutoStart
         For restart on a previous wavefunction, please use MOREAD

================================================================================
                                       INPUT FILE
================================================================================
NAME = sn2_ts.inp
|  1> ! PBE def2-SVP NEB-TS TightSCF
|  2> 
|  3> %NEB
|  4>   NEB_END_XYZFILE "product_complex.xyz"
|  5>   PREOPT TRUE
|  6>   NImages 3
|  7>   MaxIter 100
|  8> END
|  9> 
| 10> %MaxCore 2000
| 11> 
| 12> * XYZFILE -1 1 reactant_complex.xyz
| 13> 
| 14>                          ****END OF INPUT****
================================================================================


--------------------------------------------------------------------------------
                        Nudged Elastic Band Calculation
--------------------------------------------------------------------------------

Number of images (incl. end points)     ....  5
Number of intermediate images           ....  3
Number of optimized images              ....  3
Optimization of end points before NEB   ....  YES
Use existing gbw files for MO input     ....  NO
Number of atoms                         ....  19
Number of (active) degrees of freedom   ....  57
Constrained atoms                       ....  None


Before the actual NEB run reactant and product are preoptimized.

---------------------------------------------------------------
                        REACTANT OPTIMIZATION            
---------------------------------------------------------------

Geometry optimization settings:
Update method            Update   .... BFGS
Choice of coordinates    CoordSys .... (2022) Redundant Internals
Initial Hessian          InHess   .... Almloef's Model
Max. no of cycles        MaxIter  .... 57

Convergence Tolerances:
Energy Change            TolE     ....  5.0000e-06 Eh
Max. Gradient            TolMAXG  ....  3.0000e-04 Eh/bohr
RMS Gradient             TolRMSG  ....  1.0000e-04 Eh/bohr
Max. Displacement        TolMAXD  ....  4.0000e-03 bohr
RMS Displacement         TolRMSD  ....  2.0000e-03 bohr
Strict Convergence                .... False

------------------------------------------------------------------------------
                        ORCA OPTIMIZATION COORDINATE SETUP
------------------------------------------------------------------------------

The optimization will be done in redundant internal coordinates (2022)
Making redundant internal coordinates   ...  (2022 redundants) done
Evaluating the initial hessian          ...  (Almloef) done
Evaluating the coordinates              ...  done
Calculating the B-matrix                .... done
Calculating the G-matrix                .... done
The number of degrees of freedom        ....   92

    -----------------------------------------------------------------
                    Redundant Internal Coordinates


    -----------------------------------------------------------------
         Definition                    Initial Value    Approx d2E/dq
    -----------------------------------------------------------------
      1. B(C   1,C   0)                  1.5224         0.384139   
      2. B(H   2,C   0)                  1.0952         0.353237   
      3. B(H   3,C   0)                  1.0956         0.352723   
      4. B(H   4,C   0)                  1.0959         0.352370   
      5. B(C   5,C   1)                  1.5307         0.372652   
      6. B(C   7,C   5)                  1.5327         0.369862   
      7. B(H   8,C   5)                  1.0979         0.349819   
      8. B(H   9,C   5)                  1.0976         0.350191   
      9. B(C  10,C   7)                  1.5214         0.385524   
     10. B(C  10,H   6)                  1.0947         0.353922   
     11. B(H  11,C   7)                  1.0951         0.353434   
     12. B(H  12,C   7)                  1.0962         0.351937   
     13. B(H  13,C  10)                  1.0947         0.353918   
     14. B(H  14,C  10)                  1.0945         0.354191   
     15. B(H  15,C   1)                  1.0948         0.353816   
     16. B(O  16,H   2)                  1.1995         0.215693   
     17. B(O  16,C   0)                  1.8424         0.106212   
     18. B(H  17,O  16)                  1.6064         0.048380   
     19. B(Br 18,C   1)                  1.9612         0.257597   
     20. A(H   3,C   0,H   4)          107.6923         0.288912   
     21. A(C   1,C   0,H   4)          111.6689         0.324648   
     22. A(H   2,C   0,H   3)          107.5918         0.289023   
     23. A(C   1,C   0,H   3)          111.2073         0.324702   
     24. A(H   2,C   0,H   4)          107.8879         0.288978   
     25. A(H   3,C   0,O  16)          127.8940         0.263746   
     26. A(C   1,C   0,H   2)          110.6207         0.324780   
     27. A(H   2,C   0,O  16)           38.5761         0.263803   
     28. A(C   1,C   0,O  16)           72.3718         0.294984   
     29. A(H   4,C   0,O  16)          119.1445         0.263706   
     30. A(C   0,C   1,C   5)          111.6258         0.364934   
     31. A(H  15,C   1,Br 18)          105.8992         0.322777   
     32. A(C   5,C   1,Br 18)          110.1972         0.362489   
     33. A(C   5,C   1,H  15)          111.1732         0.323252   
     34. A(C   0,C   1,H  15)          109.9094         0.324867   
     35. A(C   0,C   1,Br 18)          107.8245         0.364375   
     36. A(C   0,H   2,O  16)          106.7193         0.265866   
     37. A(H   8,C   5,H   9)          106.5740         0.288258   
     38. A(C   7,C   5,H   9)          109.5483         0.322309   
     39. A(C   1,C   5,H   9)          110.5158         0.322706   
     40. A(C   7,C   5,H   8)          108.0700         0.322253   
     41. A(C   1,C   5,H   8)          108.6651         0.322650   
     42. A(C   1,C   5,C   7)          113.2171         0.362579   
     43. A(C   5,C   7,C  10)          111.3312         0.364690   
     44. A(H  11,C   7,H  12)          107.2636         0.288947   
     45. A(C  10,C   7,H  12)          109.0013         0.324775   
     46. A(C   5,C   7,H  12)          109.8249         0.322572   
     47. A(C  10,C   7,H  11)          108.6285         0.325001   
     48. A(C   5,C   7,H  11)          110.6847         0.322797   
     49. A(H   6,C  10,C   7)          110.9831         0.325075   
     50. A(H  13,C  10,H  14)          108.1155         0.289298   
     51. A(C   7,C  10,H  14)          110.2238         0.325116   
     52. A(H   6,C  10,H  14)          108.0507         0.289299   
     53. A(C   7,C  10,H  13)          111.0168         0.325075   
     54. A(H   6,C  10,H  13)          108.3460         0.289264   
     55. A(H   2,O  16,H  17)          104.6123         0.200464   
     56. A(C   0,O  16,H  17)          139.1300         0.199164   
     57. A(C   0,O  16,H   2)           34.7046         0.243515   
     58. D(H  15,C   1,C   0,H   2)    -62.8384         0.012460   
     59. D(H  15,C   1,C   0,H   4)    176.9866         0.012460   
     60. D(C   5,C   1,C   0,H   2)     60.9978         0.012460   
     61. D(C   5,C   1,C   0,H   4)    -59.1772         0.012460   
     62. D(H  15,C   1,C   0,H   3)     56.6593         0.012460   
     63. D(C   5,C   1,C   0,O  16)     55.8858         0.012460   
     64. D(C   5,C   1,C   0,H   3)   -179.5045         0.012460   
     65. D(O  16,H   2,C   0,H   4)    114.5852         0.126425   
     66. D(O  16,H   2,C   0,H   3)   -129.4803         0.126425   
     67. D(O  16,H   2,C   0,C   1)     -7.8272         0.126425   
     68. D(H   8,C   5,C   1,C   0)    -48.7364         0.011092   
     69. D(C   7,C   5,C   1,Br 18)     71.4059         0.011092   
     70. D(C   7,C   5,C   1,H  15)    -45.6923         0.011092   
     71. D(H   8,C   5,C   1,H  15)     74.3837         0.011092   
     72. D(C   7,C   5,C   1,C   0)   -168.8125         0.011092   
     73. D(H   8,C   5,C   1,Br 18)   -168.5181         0.011092   
     74. D(H  11,C   7,C   5,H   9)     60.6528         0.010936   
     75. D(H  11,C   7,C   5,H   8)    176.3906         0.010936   
     76. D(H  11,C   7,C   5,C   1)    -63.1945         0.010936   
     77. D(C  10,C   7,C   5,H   9)    -60.2775         0.010936   
     78. D(C  10,C   7,C   5,H   8)     55.4603         0.010936   
     79. D(C  10,C   7,C   5,C   1)    175.8752         0.010936   
     80. D(H  13,C  10,C   7,H  12)   -178.7693         0.011829   
     81. D(H  13,C  10,C   7,H  11)    -62.1985         0.011829   
     82. D(H  13,C  10,C   7,C   5)     59.9290         0.011829   
     83. D(H   6,C  10,C   7,H  12)     60.6677         0.011829   
     84. D(H   6,C  10,C   7,H  11)    177.2385         0.011829   
     85. D(H   6,C  10,C   7,C   5)    -60.6340         0.011829   
     86. D(H   2,O  16,C   0,H   4)    -82.2349         0.010000   
     87. D(H   2,O  16,C   0,H   3)     68.8011         0.010000   
     88. D(H   2,O  16,C   0,C   1)    172.3142         0.010000   
     89. D(H  17,O  16,H   2,C   0)    174.9590         0.040385   
     90. D(H  17,O  16,C   0,H   3)     61.3350         0.010000   
     91. D(H  17,O  16,C   0,H   2)     -7.4661         0.010000   
     92. D(H  17,O  16,C   0,C   1)    164.8481         0.010000   
    -----------------------------------------------------------------

Number of atoms                         .... 19
Number of degrees of freedom            .... 92


         *************************************************************
         *                GEOMETRY OPTIMIZATION CYCLE   1            *
         *************************************************************
---------------------------------
CARTESIAN COORDINATES (ANGSTROEM)
---------------------------------
  C     -3.403821    0.564418   -0.150773
  C     -2.165782    1.273314    0.380693
  H     -3.358997   -0.507475    0.069642
  H     -4.315569    0.959545    0.310752
  H     -3.502368    0.681088   -1.235987
  C     -0.886861    0.736844   -0.267012
  H      1.600039   -0.504288   -0.086700
  C      0.391022    1.222318    0.426210
  H     -0.903342   -0.359971   -0.221452
  H     -0.852437    1.005543   -1.330653
  C      1.629313    0.585444   -0.186795
  H      0.483077    2.310826    0.349460
  H      0.352689    0.973493    1.493151
  H      1.711885    0.831685   -1.250254
  H      2.530424    0.948249    0.317497
  H     -2.124287    1.184040    1.471050
  O     -2.265701   -0.723070    0.513553
  H     -2.300589   -2.270634    0.942941
  Br    -2.362951    3.188159    0.005531

----------------------------
CARTESIAN COORDINATES (A.U.)
----------------------------
  NO LB      ZA    FRAG     MASS         X           Y           Z
   0 C     6.0000    0    12.011   -6.432289    1.066595   -0.284920
   1 C     6.0000    0    12.011   -4.092735    2.406215    0.719406
   2 H     1.0000    0     1.008   -6.347584   -0.958989    0.131604
   3 H     1.0000    0     1.008   -8.155244    1.813277    0.587236
   4 H     1.0000    0     1.008   -6.618516    1.287070   -2.335677
   5 C     6.0000    0    12.011   -1.675924    1.392433   -0.504580
   6 H     1.0000    0     1.008    3.023636   -0.952966   -0.163839
   7 C     6.0000    0    12.011    0.738924    2.309846    0.805420
   8 H     1.0000    0     1.008   -1.707069   -0.680247   -0.418484
   9 H     1.0000    0     1.008   -1.610872    1.900201   -2.514570
  10 C     6.0000    0    12.011    3.078955    1.106329   -0.352991
  11 H     1.0000    0     1.008    0.912883    4.366828    0.660384
  12 H     1.0000    0     1.008    0.666486    1.839635    2.821646
  13 H     1.0000    0     1.008    3.234994    1.571657   -2.362638
  14 H     1.0000    0     1.008    4.781808    1.791931    0.599982
  15 H     1.0000    0     1.008   -4.014321    2.237511    2.779882
  16 O     8.0000    0    15.999   -4.281554   -1.366404    0.970474
  17 H     1.0000    0     1.008   -4.347482   -4.290876    1.781900
  18 Br   35.0000    0    79.900   -4.465330    6.024747    0.010452

--------------------------------
INTERNAL COORDINATES (ANGSTROEM)
--------------------------------
 C      0   0   0     0.000000000000     0.00000000     0.00000000
 C      1   0   0     1.522409344918     0.00000000     0.00000000
 H      1   2   0     1.095238132394   110.62065739     0.00000000
 H      1   2   3     1.095634559175   111.20734865   119.49767330
 H      1   2   3     1.095907307168   111.66894780   239.82499111
 C      2   1   3     1.530673300272   111.62577572    60.99782402
 H      6   2   1     2.785245531146   151.02281380   240.93263541
 C      6   2   1     1.532718730769   113.21705908   191.18753378
 H      6   2   1     1.097884548204   108.66509078   311.26358876
 H      6   2   1     1.097595709384   110.51575316    67.87156743
 C      7   6   2     1.094710833017    64.80974722   258.88785807
 H      8   6   2     1.095086458500   110.68466860   296.80552395
 H      8   6   2     1.096241942728   109.82486478    55.05537751
 H     11   7   6     1.094713574386   108.34602807   267.45143283
 H     11   7   6     1.094503962355   108.05072929   150.54007031
 H      2   1   3     1.094792249493   109.90936137   297.16161749
 O      3   1   2     1.199514425777   106.71930237   352.17281842
 H     17   3   1     1.606407944441   104.61225388   174.95904950
 Br     2   1   3     1.961186761843   107.82446643   182.16878973

---------------------------
INTERNAL COORDINATES (A.U.)
---------------------------
 C      0   0   0     0.000000000000     0.00000000     0.00000000
 C      1   0   0     2.876936725617     0.00000000     0.00000000
 H      1   2   0     2.069700121652   110.62065739     0.00000000
 H      1   2   3     2.070449259700   111.20734865   119.49767330
 H      1   2   3     2.070964678711   111.66894780   239.82499111
 C      2   1   3     2.892553338020   111.62577572    60.99782402
 H      6   2   1     5.263351269594   151.02281380   240.93263541
 C      6   2   1     2.896418641484   113.21705908   191.18753378
 H      6   2   1     2.074701122770   108.66509078   311.26358876
 H      6   2   1     2.074155296503   110.51575316    67.87156743
 C      7   6   2     2.068703670239    64.80974722   258.88785807
 H      8   6   2     2.069413499530   110.68466860   296.80552395
 H      8   6   2     2.071597048273   109.82486478    55.05537751
 H     11   7   6     2.068708850676   108.34602807   267.45143283
 H     11   7   6     2.068312741342   108.05072929   150.54007031
 H      2   1   3     2.068857525081   109.90936137   297.16161749
 O      3   1   2     2.266753758407   106.71930237   352.17281842
 H     17   3   1     3.035671074349   104.61225388   174.95904950
 Br     2   1   3     3.706105877356   107.82446643   182.16878973

---------------------
BASIS SET INFORMATION
---------------------
There are 4 groups of distinct atoms

 Group   1 Type C   : 7s4p1d contracted to 3s2p1d pattern {511/31/1}
 Group   2 Type H   : 4s1p contracted to 2s1p pattern {31/1}
 Group   3 Type O   : 7s4p1d contracted to 3s2p1d pattern {511/31/1}
 Group   4 Type Br  : 14s10p6d contracted to 5s4p3d pattern {63311/5311/411}

Atom   0C    basis set group =>   1
Atom   1C    basis set group =>   1
Atom   2H    basis set group =>   2
Atom   3H    basis set group =>   2
Atom   4H    basis set group =>   2
Atom   5C    basis set group =>   1
Atom   6H    basis set group =>   2
Atom   7C    basis set group =>   1
Atom   8H    basis set group =>   2
Atom   9H    basis set group =>   2
Atom  10C    basis set group =>   1
Atom  11H    basis set group =>   2
Atom  12H    basis set group =>   2
Atom  13H    basis set group =>   2
Atom  14H    basis set group =>   2
Atom  15H    basis set group =>   2
Atom  16O    basis set group =>   3
Atom  17H    basis set group =>   2
Atom  18Br   basis set group =>   4
---------------------------------
AUXILIARY/J BASIS SET INFORMATION
---------------------------------
There are 4 groups of distinct atoms

 Group   1 Type C   : 12s5p4d2f1g contracted to 6s4p3d1f1g pattern {711111/2111/211/2/1}
 Group   2 Type H   : 5s2p1d contracted to 3s1p1d pattern {311/2/1}
 Group   3 Type O   : 12s5p4d2f1g contracted to 6s4p3d1f1g pattern {711111/2111/211/2/1}
 Group   4 Type Br  : 19s5p5d3f1g contracted to 8s4p3d2f1g pattern {121111111/2111/311/21/1}

Atom   0C    basis set group =>   1
Atom   1C    basis set group =>   1
Atom   2H    basis set group =>   2
Atom   3H    basis set group =>   2
Atom   4H    basis set group =>   2
Atom   5C    basis set group =>   1
Atom   6H    basis set group =>   2
Atom   7C    basis set group =>   1
Atom   8H    basis set group =>   2
Atom   9H    basis set group =>   2
Atom  10C    basis set group =>   1
Atom  11H    basis set group =>   2
Atom  12H    basis set group =>   2
Atom  13H    basis set group =>   2
Atom  14H    basis set group =>   2
Atom  15H    basis set group =>   2
Atom  16O    basis set group =>   3
Atom  17H    basis set group =>   2
Atom  18Br   basis set group =>   4
------------------------------------------------------------------------------
                             ORCA STARTUP CALCULATIONS
                           -- RI-GTO INTEGRALS CHOSEN --
------------------------------------------------------------------------------
------------------------------------------------------------------------------
                   ___                                                        
                  /   \      - P O W E R E D   B Y -                         
                 /     \                                                     
                 |  |  |   _    _      __       _____    __    __             
                 |  |  |  | |  | |    /  \     |  _  \  |  |  /  |          
                  \  \/   | |  | |   /    \    | | | |  |  | /  /          
                 / \  \   | |__| |  /  /\  \   | |_| |  |  |/  /          
                |  |  |   |  __  | /  /__\  \  |    /   |      \           
                |  |  |   | |  | | |   __   |  |    \   |  |\   \          
                \     /   | |  | | |  |  |  |  | |\  \  |  | \   \       
                 \___/    |_|  |_| |__|  |__|  |_| \__\ |__|  \__/        
                                                                              
                      - O R C A' S   B I G   F R I E N D -                    
                                      &                                       
                       - I N T E G R A L  F E E D E R -                       
                                                                              
 v1 FN, 2020, v2 2021, v3 2022-2024                                           
------------------------------------------------------------------------------


----------------------
SHARK INTEGRAL PACKAGE
----------------------

Number of atoms                             ...     19
Number of basis functions                   ...    176
Number of shells                            ...     84
Maximum angular momentum                    ...      2
Integral batch strategy                     ... SHARK/LIBINT Hybrid
RI-J (if used) integral strategy            ... SPLIT-RIJ (Revised 2003 algorithm where possible)
Printlevel                                  ...      1
Contraction scheme used                     ... SEGMENTED contraction
Prescreening option                         ... SCHWARTZ
   Thresh                                   ... 2.500e-11
   Tcut                                     ... 2.500e-12
   Tpresel                                  ... 2.500e-12 
Coulomb Range Separation                    ... NOT USED
Exchange Range Separation                   ... NOT USED
Multipole approximations                    ... NOT USED
Finite Nucleus Model                        ... NOT USED
CABS basis                                  ... NOT available
Auxiliary Coulomb fitting basis             ... AVAILABLE
   # of basis functions in Aux-J            ...    484
   # of shells in Aux-J                     ...    168
   Maximum angular momentum in Aux-J        ...      4
Auxiliary J/K fitting basis                 ... NOT available
Auxiliary Correlation fitting basis         ... NOT available
Auxiliary 'external' fitting basis          ... NOT available

Checking pre-screening integrals            ... done (  0.0 sec) Dimension = 84
   => SHARK Basis and OBASIS are compatible. Storing Pre-screening
Shell pair information
Shell pair cut-off parameter TPreSel        ...   2.5e-12
Total number of shell pairs                 ...      3570
Shell pairs after pre-screening             ...      3277
Total number of primitive shell pairs       ...     13357
Primitive shell pairs kept                  ...      8851
          la=0 lb=0:   1055 shell pairs
          la=1 lb=0:   1209 shell pairs
          la=1 lb=1:    364 shell pairs
          la=2 lb=0:    386 shell pairs
          la=2 lb=1:    223 shell pairs
          la=2 lb=2:     40 shell pairs

Checking whether 4 symmetric matrices of dimension 176 fit in memory
:Max Core in MB      =   2000.00
 MB in use           =      6.72
 MB left             =   1993.28
 MB needed           =      0.48
 Data fit in memory  = YES
Calculating RI/J V-Matrix + Cholesky decomp.... done (  0.2 sec)
Calculating Nuclear repulsion               ... done (  0.0 sec) ENN=    542.768473915939 Eh

Diagonalization of the overlap matrix:
Smallest eigenvalue                        ... 1.342e-03
Time for diagonalization                   ...    0.009 sec
Threshold for overlap eigenvalues          ... 1.000e-07
Number of eigenvalues below threshold      ... 0
Time for construction of square roots      ...    0.008 sec
Total time needed                          ...    0.019 sec

-------------------
DFT GRID GENERATION
-------------------

General Integration Accuracy     IntAcc      ... 4.388
Radial Grid Type                 RadialGrid  ... OptM3 with GC (2021)
Angular Grid (max. ang.)         AngularGrid ... 4 (Lebedev-302)
Angular grid pruning method      GridPruning ... 4 (adaptive)
Weight generation scheme         WeightScheme... mBecke (2022)
Basis function cutoff            BFCut       ... 1.0000e-11
Integration weight cutoff        WCut        ... 1.0000e-14
Partially contracted basis set               ... off
Rotationally invariant grid construction     ... off
Angular grids for H and He will be reduced by one unit
Core-polarized basis detected: some atoms will have their core
                               angular grid increased.

Total number of grid points                  ...    85687
Total number of batches                      ...     1349
Average number of points per batch           ...       63
Average number of grid points per atom       ...     4510
Grids setup in   3.0 sec
Initializing property integral containers    ... done (  0.0 sec)

SHARK setup successfully completed in   3.6 seconds

Maximum memory used throughout the entire STARTUP-calculation: 40.5 MB
-------------------------------------------------------------------------------
                                 ORCA GUESS
                   Start orbitals & Density for SCF / CASSCF
-------------------------------------------------------------------------------

------------
SCF SETTINGS
------------
Hamiltonian:
 Density Functional     Method          .... DFT(GTOs)
 Exchange Functional    Exchange        .... PBE
   PBE kappa parameter   XKappa         ....  0.804000
   PBE mue parameter    XMuePBE         ....  0.219520
 Correlation Functional Correlation     .... PBE
   PBE beta parameter  CBetaPBE         ....  0.066725
 LDA part of GGA corr.  LDAOpt          .... PW91-LDA
 Gradients option       PostSCFGGA      .... off
   NL short-range parameter             ....  6.400000
 RI-approximation to the Coulomb term is turned on
   Number of AuxJ basis functions       .... 484


General Settings:
 Integral files         IntName         .... sn2_ts_reactant
 Hartree-Fock type      HFTyp           .... RHF
 Total Charge           Charge          ....   -1
 Multiplicity           Mult            ....    1
 Number of Electrons    NEL             ....   86
 Basis Dimension        Dim             ....  176
 Nuclear Repulsion      ENuc            ....    542.7684739159 Eh

Convergence Acceleration:
 AO-DIIS                CNVDIIS         .... on
   Start iteration      DIISMaxIt       ....    12
   Startup error        DIISStart       ....  0.200000
   # of expansion vecs  DIISMaxEq       ....     5
   Bias factor          DIISBfac        ....   1.050
   Max. coefficient     DIISMaxC        ....  10.000
 MO-DIIS                CNVKDIIS        .... off
 Trust-Rad. Augm. Hess. CNVTRAH         .... auto
   Auto Start mean grad. ratio tolernc. ....  1.125000
   Auto Start start iteration           ....    50
   Auto Start num. interpolation iter.  ....    10
   Max. Number of Micro iterations      ....    24
   Max. Number of Macro iterations      .... Maxiter - #DIIS iter
   Number of Davidson start vectors     ....     2
   Converg. threshold    (grad. norm)   ....   1.000e-05
   Grad. Scal. Fac. for Micro threshold ....   0.100
   Minimum threshold for Micro iter.    ....   1.000e-02
   NR start threshold (gradient norm)   ....   1.000e-04
   Initial trust radius                 ....   0.400
   Minimum AH scaling param. (alpha)    ....   1.000
   Maximum AH scaling param. (alpha)    .... 1000.000
   Quad. conv. algorithm                .... NR
   White noise on init. David. guess    .... on
   Maximum white noise                  ....   0.010
   Pseudo random numbers                .... off
   Inactive MOs                         .... canonical
   Orbital update algorithm             .... Taylor
   Preconditioner                       .... Diag
   Full preconditioner red. dimension   ....   250
 SOSCF                 CNVSOSCF           .... on
   Start iteration     SOSCFMaxIt         ....   150
   Startup grad/error  SOSCFStart         ....  0.003300
   Hessian update      SOSCFHessUp        .... L-BFGS
   Autom. constraints  SOSCFAutoConstrain .... off
 Level Shifting         CNVShift        .... on
   Level shift para.    LevelShift      ....    0.2500
   Turn off err/grad.   ShiftErr        ....    0.0010
 Zerner damping         CNVZerner       .... off
 Static damping         CNVDamp         .... on
   Fraction old density DampFac         ....    0.7000
   Max. Damping (<1)    DampMax         ....    0.9800
   Min. Damping (>=0)   DampMin         ....    0.0000
   Turn off err/grad.   DampErr         ....    0.1000

SCF Procedure:
 Maximum # iterations   MaxIter         ....   125
 SCF integral mode      SCFMode         .... Direct
   Integral package                     .... SHARK and LIBINT hybrid scheme
 Reset frequency        DirectResetFreq ....    20
 Integral Threshold     Thresh          ....  2.500e-11 Eh
 Primitive CutOff       TCut            ....  2.500e-12 Eh

Convergence Tolerance:
 Convergence Check Mode ConvCheckMode   .... Total+1el-Energy
 Convergence forced     ConvForced      .... 0
 Energy Change          TolE            ....  1.000e-08 Eh
 1-El. energy change                    ....  1.000e-05 Eh
 Orbital Gradient       TolG            ....  1.000e-05
 Orbital Rotation angle TolX            ....  1.000e-05
 DIIS Error             TolErr          ....  5.000e-07

------------------------------
INITIAL GUESS: MODEL POTENTIAL
------------------------------
Loading Hartree-Fock densities                     ... done
Calculating cut-offs                               ... done
Initializing the effective Hamiltonian             ... done
Setting up the integral package (SHARK)            ... done
Starting the Coulomb interaction                   ... done (   0.3 sec)
Making the grid                                    ... done (   0.3 sec)
Mapping shells                                     ... done
Starting the XC term evaluation                    ... done (   0.3 sec)
  promolecular density results
     # of electrons  =     84.996001420
     EX              =   -126.523245682
     EC              =     -3.359730965
     EX+EC           =   -129.882976647
Transforming the Hamiltonian                       ... done (   0.0 sec)
Diagonalizing the Hamiltonian                      ... done (   0.0 sec)
Back transforming the eigenvectors                 ... done (   0.0 sec)
Now organizing SCF variables                       ... done
                      ------------------
                      INITIAL GUESS DONE (   1.1 sec)
                      ------------------
             **** ENERGY FILE WAS UPDATED (sn2_ts_reactant.en.tmp) ****
Finished Guess after   1.5 sec
Maximum memory used throughout the entire GUESS-calculation: 15.3 MB
Warning: Unable to find asked property in file 'sn2_ts_reactant.property.txt'

-------------------------------------------------------------------------------------------
                                      ORCA LEAN-SCF
                              memory conserving SCF solver
-------------------------------------------------------------------------------------------

----------------------------------------D-I-I-S--------------------------------------------
Iteration    Energy (Eh)           Delta-E    RMSDP     MaxDP     DIISErr   Damp  Time(sec)
-------------------------------------------------------------------------------------------
               ***  Starting incremental Fock matrix formation  ***
    1    -2845.0863301060580852     0.00e+00  1.33e-02  3.19e-01  5.15e-01  0.700   1.5
Warning: op=0 Small HOMO/LUMO gap (   0.007) - skipping pre-diagonalization
         Will do a full diagonalization
    2    -2845.3941928954436662    -3.08e-01  4.58e-03  1.60e-01  9.95e-02  0.700   1.8
                               ***Turning on AO-DIIS***
    3    -2845.4602159664882493    -6.60e-02  2.56e-03  1.01e-01  4.83e-02  0.700   1.1
    4    -2845.4957077817889513    -3.55e-02  6.39e-03  1.59e-01  7.12e-02  0.000   1.2
    5    -2845.6064536605936155    -1.11e-01  1.93e-03  8.63e-02  5.61e-02  0.000   1.0
    6    -2845.6196176152498083    -1.32e-02  1.03e-03  4.47e-02  1.41e-02  0.000   0.9
    7    -2845.6219584340851725    -2.34e-03  6.48e-04  2.46e-02  8.32e-03  0.000   1.0
                              *** Initializing SOSCF ***
---------------------------------------S-O-S-C-F--------------------------------------
Iteration    Energy (Eh)           Delta-E    RMSDP     MaxDP     MaxGrad    Time(sec)
--------------------------------------------------------------------------------------
    8    -2845.6227460563368368    -7.88e-04  4.09e-04  1.14e-02  3.23e-03     0.9
               *** Restarting incremental Fock matrix formation ***
    9    -2845.6230141743017157    -2.68e-04  7.49e-04  1.72e-02  2.78e-03     1.1
   10    -2845.6232015769473946    -1.87e-04  4.96e-04  9.23e-03  1.68e-03     1.6
   11    -2845.6231249881893746     7.66e-05  2.52e-04  7.30e-03  3.23e-03     1.5
   12    -2845.6232289962463256    -1.04e-04  2.82e-04  5.90e-03  1.25e-03     1.8
   13    -2845.6232018899081595     2.71e-05  1.87e-04  3.50e-03  1.65e-03     1.0
   14    -2845.6232532013527816    -5.13e-05  3.13e-05  8.19e-04  1.29e-04     0.9
   15    -2845.6232522955397144     9.06e-07  2.01e-05  6.06e-04  2.56e-04     0.9
   16    -2845.6232538489803119    -1.55e-06  6.42e-06  1.37e-04  2.08e-05     0.8
   17    -2845.6232538480498988     9.30e-10  3.27e-06  6.53e-05  1.78e-05     0.8
                 **** Energy Check signals convergence ****

               *****************************************************
               *                     SUCCESS                       *
               *           SCF CONVERGED AFTER  17 CYCLES          *
               *****************************************************

             **** ENERGY FILE WAS UPDATED (sn2_ts_reactant.en.tmp) ****

----------------
TOTAL SCF ENERGY
----------------

Total Energy       :      -2845.62325388213867 Eh          -77433.34537 eV

Components:
Nuclear Repulsion  :        542.76847391593924 Eh           14769.48104 eV
Electronic Energy  :      -3388.39172779807814 Eh          -92202.82641 eV
One Electron Energy:      -5045.57607134537739 Eh         -137297.10495 eV
Two Electron Energy:       1657.18434354729902 Eh           45094.27854 eV

Virial components:
Potential Energy   :      -5686.58346604746112 Eh         -154739.80293 eV
Kinetic Energy     :       2840.96021216532290 Eh           77306.45756 eV
Virial Ratio       :          2.00164136114855

DFT components:
N(Alpha)           :       42.999980040029 electrons
N(Beta)            :       42.999980040029 electrons
N(Total)           :       85.999960080058 electrons
E(X)               :     -127.570840354409 Eh       
E(C)               :       -3.401663196668 Eh       
E(XC)              :     -130.972503551077 Eh       

---------------
SCF CONVERGENCE
---------------

  Last Energy change         ...   -9.3041e-10  Tolerance :   1.0000e-08
  Last MAX-Density change    ...    6.5287e-05  Tolerance :   1.0000e-07
  Last RMS-Density change    ...    3.2709e-06  Tolerance :   5.0000e-09
  Last DIIS Error            ...    3.2339e-03  Tolerance :   5.0000e-07
  Last Orbital Gradient      ...    1.7757e-05  Tolerance :   1.0000e-05
  Last Orbital Rotation      ...    5.3894e-05  Tolerance :   1.0000e-05


----------------
ORBITAL ENERGIES
----------------

  NO   OCC          E(Eh)            E(eV) 
   0   2.0000    -480.742841    -13081.6778 
   1   2.0000     -61.585488     -1675.8263 
   2   2.0000     -55.515461     -1510.6525 
   3   2.0000     -55.513390     -1510.5961 
   4   2.0000     -55.513167     -1510.5901 
   5   2.0000     -18.512771      -503.7581 
   6   2.0000      -9.770119      -265.8584 
   7   2.0000      -9.757924      -265.5266 
   8   2.0000      -9.741506      -265.0798 
   9   2.0000      -9.707024      -264.1415 
  10   2.0000      -9.704804      -264.0811 
  11   2.0000      -8.210946      -223.4312 
  12   2.0000      -6.090294      -165.7253 
  13   2.0000      -6.079878      -165.4419 
  14   2.0000      -6.079814      -165.4402 
  15   2.0000      -2.292212       -62.3743 
  16   2.0000      -2.289619       -62.3037 
  17   2.0000      -2.289557       -62.3020 
  18   2.0000      -2.281671       -62.0874 
  19   2.0000      -2.281667       -62.0873 
  20   2.0000      -0.649791       -17.6817 
  21   2.0000      -0.565034       -15.3754 
  22   2.0000      -0.544838       -14.8258 
  23   2.0000      -0.465920       -12.6783 
  24   2.0000      -0.443271       -12.0620 
  25   2.0000      -0.383367       -10.4319 
  26   2.0000      -0.342743        -9.3265 
  27   2.0000      -0.268917        -7.3176 
  28   2.0000      -0.252994        -6.8843 
  29   2.0000      -0.232080        -6.3152 
  30   2.0000      -0.218354        -5.9417 
  31   2.0000      -0.213680        -5.8145 
  32   2.0000      -0.201967        -5.4958 
  33   2.0000      -0.170226        -4.6321 
  34   2.0000      -0.157199        -4.2776 
  35   2.0000      -0.139009        -3.7826 
  36   2.0000      -0.130554        -3.5525 
  37   2.0000      -0.124141        -3.3780 
  38   2.0000      -0.069642        -1.8950 
  39   2.0000      -0.066885        -1.8200 
  40   2.0000      -0.045148        -1.2285 
  41   2.0000       0.006057         0.1648 
  42   2.0000       0.072380         1.9696 
  43   0.0000       0.116585         3.1725 
  44   0.0000       0.169482         4.6118 
  45   0.0000       0.180083         4.9003 
  46   0.0000       0.203494         5.5374 
  47   0.0000       0.222426         6.0525 
  48   0.0000       0.225301         6.1308 
  49   0.0000       0.230411         6.2698 
  50   0.0000       0.246523         6.7082 
  51   0.0000       0.266579         7.2540 
  52   0.0000       0.271293         7.3823 
  53   0.0000       0.284869         7.7517 
*Only the first 10 virtual orbitals were printed.

                    ********************************
                    * MULLIKEN POPULATION ANALYSIS *
                    ********************************

-----------------------
MULLIKEN ATOMIC CHARGES
-----------------------
   0 C :    0.034714
   1 C :   -0.147534
   2 H :    0.112902
   3 H :   -0.038468
   4 H :   -0.037400
   5 C :    0.038604
   6 H :    0.004034
   7 C :   -0.002598
   8 H :    0.065441
   9 H :   -0.057236
  10 C :   -0.008121
  11 H :   -0.027830
  12 H :   -0.023856
  13 H :   -0.008011
  14 H :   -0.023670
  15 H :    0.024111
  16 O :   -0.376287
  17 H :   -0.235273
  18 Br:   -0.293521
Sum of atomic charges:   -1.0000000

--------------------------------
MULLIKEN REDUCED ORBITAL CHARGES
--------------------------------
  0 C s       :     2.945668  s :     2.945668
      pz      :     0.967056  p :     2.988148
      px      :     0.902067
      py      :     1.119024
      dz2     :     0.008216  d :     0.031471
      dxz     :     0.005273
      dyz     :     0.003794
      dx2y2   :     0.006662
      dxy     :     0.007525

  1 C s       :     3.202604  s :     3.202604
      pz      :     1.041348  p :     2.896734
      px      :     1.024381
      py      :     0.831004
      dz2     :     0.011903  d :     0.048197
      dxz     :     0.006373
      dyz     :     0.005716
      dx2y2   :     0.015240
      dxy     :     0.008966

  2 H s       :     0.814716  s :     0.814716
      pz      :     0.017767  p :     0.072383
      px      :     0.029142
      py      :     0.025473

  3 H s       :     1.013791  s :     1.013791
      pz      :     0.006796  p :     0.024678
      px      :     0.009840
      py      :     0.008042

  4 H s       :     1.013219  s :     1.013219
      pz      :     0.012648  p :     0.024181
      px      :     0.004767
      py      :     0.006767

  5 C s       :     3.010165  s :     3.010165
      pz      :     0.944961  p :     2.917730
      px      :     0.893228
      py      :     1.079540
      dz2     :     0.008679  d :     0.033501
      dxz     :     0.006203
      dyz     :     0.003453
      dx2y2   :     0.007739
      dxy     :     0.007427

  6 H s       :     0.972605  s :     0.972605
      pz      :     0.005433  p :     0.023361
      px      :     0.004904
      py      :     0.013024

  7 C s       :     3.004045  s :     3.004045
      pz      :     0.999132  p :     2.963353
      px      :     0.973326
      py      :     0.990895
      dz2     :     0.010298  d :     0.035199
      dxz     :     0.006025
      dyz     :     0.002398
      dx2y2   :     0.009862
      dxy     :     0.006616

  8 H s       :     0.899083  s :     0.899083
      pz      :     0.007229  p :     0.035477
      px      :     0.010548
      py      :     0.017700

  9 H s       :     1.034249  s :     1.034249
      pz      :     0.011877  p :     0.022987
      px      :     0.004152
      py      :     0.006958

 10 C s       :     2.975457  s :     2.975457
      pz      :     0.993703  p :     3.005733
      px      :     0.998970
      py      :     1.013060
      dz2     :     0.007896  d :     0.026931
      dxz     :     0.005046
      dyz     :     0.001885
      dx2y2   :     0.008330
      dxy     :     0.003775

 11 H s       :     1.004862  s :     1.004862
      pz      :     0.005054  p :     0.022968
      px      :     0.004786
      py      :     0.013129

 12 H s       :     1.001582  s :     1.001582
      pz      :     0.012171  p :     0.022274
      px      :     0.004374
      py      :     0.005730

 13 H s       :     0.984610  s :     0.984610
      pz      :     0.012533  p :     0.023401
      px      :     0.005060
      py      :     0.005808

 14 H s       :     1.000419  s :     1.000419
      pz      :     0.007030  p :     0.023251
      px      :     0.009918
      py      :     0.006303

 15 H s       :     0.954646  s :     0.954646
      pz      :     0.013047  p :     0.021243
      px      :     0.003686
      py      :     0.004510

 16 O s       :     3.887634  s :     3.887634
      pz      :     1.719310  p :     4.482416
      px      :     1.551422
      py      :     1.211684
      dz2     :     0.000748  d :     0.006237
      dxz     :     0.001100
      dyz     :     0.000830
      dx2y2   :     0.001821
      dxy     :     0.001737

 17 H s       :     1.227415  s :     1.227415
      pz      :     0.001752  p :     0.007858
      px      :     0.001367
      py      :     0.004739

 18 Brs       :     7.962633  s :     7.962633
      pz      :     5.949832  p :    17.289278
      px      :     5.947402
      py      :     5.392045
      dz2     :     2.006288  d :    10.041610
      dxz     :     2.000860
      dyz     :     2.010050
      dx2y2   :     2.014916
      dxy     :     2.009497



                     *******************************
                     * LOEWDIN POPULATION ANALYSIS *
                     *******************************

----------------------
LOEWDIN ATOMIC CHARGES
----------------------
   0 C :   -0.063239
   1 C :   -0.095273
   2 H :   -0.054805
   3 H :   -0.007236
   4 H :   -0.006951
   5 C :   -0.072748
   6 H :    0.017178
   7 C :   -0.052095
   8 H :    0.010306
   9 H :   -0.008899
  10 C :   -0.073544
  11 H :   -0.002253
  12 H :    0.009630
  13 H :    0.013013
  14 H :    0.006178
  15 H :    0.013883
  16 O :   -0.290793
  17 H :   -0.210988
  18 Br:   -0.131365

-------------------------------
LOEWDIN REDUCED ORBITAL CHARGES
-------------------------------
  0 C s       :     2.852919  s :     2.852919
      pz      :     1.042097  p :     3.123209
      px      :     0.993292
      py      :     1.087820
      dz2     :     0.022778  d :     0.087111
      dxz     :     0.013282
      dyz     :     0.009709
      dx2y2   :     0.020722
      dxy     :     0.020620

  1 C s       :     2.929576  s :     2.929576
      pz      :     1.086956  p :     3.052829
      px      :     1.064643
      py      :     0.901230
      dz2     :     0.028965  d :     0.112868
      dxz     :     0.015139
      dyz     :     0.012463
      dx2y2   :     0.035708
      dxy     :     0.020593

  2 H s       :     0.759114  s :     0.759114
      pz      :     0.059815  p :     0.295691
      px      :     0.113791
      py      :     0.122085

  3 H s       :     0.931389  s :     0.931389
      pz      :     0.016973  p :     0.075847
      px      :     0.031026
      py      :     0.027848

  4 H s       :     0.931877  s :     0.931877
      pz      :     0.038875  p :     0.075074
      px      :     0.012712
      py      :     0.023487

  5 C s       :     2.860282  s :     2.860282
      pz      :     1.026915  p :     3.122699
      px      :     0.979143
      py      :     1.116641
      dz2     :     0.022950  d :     0.089767
      dxz     :     0.017230
      dyz     :     0.008539
      dx2y2   :     0.022697
      dxy     :     0.018352

  6 H s       :     0.916663  s :     0.916663
      pz      :     0.013044  p :     0.066158
      px      :     0.013446
      py      :     0.039669

  7 C s       :     2.839757  s :     2.839757
      pz      :     1.049534  p :     3.121649
      px      :     1.020351
      py      :     1.051764
      dz2     :     0.026420  d :     0.090689
      dxz     :     0.015846
      dyz     :     0.006307
      dx2y2   :     0.025782
      dxy     :     0.016333

  8 H s       :     0.860904  s :     0.860904
      pz      :     0.021611  p :     0.128790
      px      :     0.037376
      py      :     0.069803

  9 H s       :     0.937887  s :     0.937887
      pz      :     0.037354  p :     0.071012
      px      :     0.012892
      py      :     0.020766

 10 C s       :     2.842012  s :     2.842012
      pz      :     1.056543  p :     3.159810
      px      :     1.040483
      py      :     1.062785
      dz2     :     0.020921  d :     0.071721
      dxz     :     0.013470
      dyz     :     0.005162
      dx2y2   :     0.022137
      dxy     :     0.010031

 11 H s       :     0.932229  s :     0.932229
      pz      :     0.013826  p :     0.070024
      px      :     0.015296
      py      :     0.040902

 12 H s       :     0.924249  s :     0.924249
      pz      :     0.037639  p :     0.066121
      px      :     0.013636
      py      :     0.014846

 13 H s       :     0.921430  s :     0.921430
      pz      :     0.037631  p :     0.065557
      px      :     0.013522
      py      :     0.014403

 14 H s       :     0.927982  s :     0.927982
      pz      :     0.018608  p :     0.065839
      px      :     0.030871
      py      :     0.016361

 15 H s       :     0.911442  s :     0.911442
      pz      :     0.044035  p :     0.074676
      px      :     0.013675
      py      :     0.016966

 16 O s       :     3.773185  s :     3.773185
      pz      :     1.726326  p :     4.502404
      px      :     1.553881
      py      :     1.222197
      dz2     :     0.002070  d :     0.015204
      dxz     :     0.003806
      dyz     :     0.001587
      dx2y2   :     0.004188
      dxy     :     0.003552

 17 H s       :     1.186533  s :     1.186533
      pz      :     0.004166  p :     0.024455
      px      :     0.003445
      py      :     0.016843

 18 Brs       :     7.832441  s :     7.832441
      pz      :     5.931530  p :    17.237060
      px      :     5.920987
      py      :     5.384543
      dz2     :     2.009866  d :    10.061864
      dxz     :     2.001248
      dyz     :     2.013380
      dx2y2   :     2.025644
      dxy     :     2.011725



                      *****************************
                      * MAYER POPULATION ANALYSIS *
                      *****************************

  NA   - Mulliken gross atomic population
  ZA   - Total nuclear charge
  QA   - Mulliken gross atomic charge
  VA   - Mayer's total valence
  BVA  - Mayer's bonded valence
  FA   - Mayer's free valence

  ATOM       NA         ZA         QA         VA         BVA        FA
  0 C      5.9653     6.0000     0.0347     3.7265     3.7265    -0.0000
  1 C      6.1475     6.0000    -0.1475     4.0555     4.0555    -0.0000
  2 H      0.8871     1.0000     0.1129     1.0964     1.0964     0.0000
  3 H      1.0385     1.0000    -0.0385     0.9877     0.9877     0.0000
  4 H      1.0374     1.0000    -0.0374     0.9933     0.9933     0.0000
  5 C      5.9614     6.0000     0.0386     3.8724     3.8724    -0.0000
  6 H      0.9960     1.0000     0.0040     0.9945     0.9945     0.0000
  7 C      6.0026     6.0000    -0.0026     4.0930     4.0930    -0.0000
  8 H      0.9346     1.0000     0.0654     1.0906     1.0906    -0.0000
  9 H      1.0572     1.0000    -0.0572     0.9908     0.9908     0.0000
 10 C      6.0081     6.0000    -0.0081     4.0186     4.0186    -0.0000
 11 H      1.0278     1.0000    -0.0278     0.9941     0.9941     0.0000
 12 H      1.0239     1.0000    -0.0239     0.9783     0.9783     0.0000
 13 H      1.0080     1.0000    -0.0080     0.9888     0.9888    -0.0000
 14 H      1.0237     1.0000    -0.0237     0.9760     0.9760    -0.0000
 15 H      0.9759     1.0000     0.0241     1.0119     1.0119     0.0000
 16 O      8.3763     8.0000    -0.3763     1.6638     1.6638    -0.0000
 17 H      1.2353     1.0000    -0.2353     0.9502     0.9502    -0.0000
 18 Br    35.2935    35.0000    -0.2935     0.9785     0.9785    -0.0000

  Mayer bond orders larger than 0.100000
B(  0-C ,  1-C ) :   1.0762 B(  0-C ,  2-H ) :   0.5732 B(  0-C ,  3-H ) :   0.9072 
B(  0-C ,  4-H ) :   0.9141 B(  0-C , 17-H ) :   0.1730 B(  1-C ,  5-C ) :   1.0190 
B(  1-C , 15-H ) :   0.9208 B(  1-C , 16-O ) :   0.1677 B(  1-C , 18-Br) :   0.7924 
B(  2-H , 16-O ) :   0.4399 B(  5-C ,  7-C ) :   1.0813 B(  5-C ,  8-H ) :   0.8696 
B(  5-C ,  9-H ) :   0.9011 B(  6-H , 10-C ) :   0.9628 B(  7-C , 10-C ) :   1.1200 
B(  7-C , 11-H ) :   0.9197 B(  7-C , 12-H ) :   0.9255 B(  8-H , 16-O ) :   0.1474 
B( 10-C , 13-H ) :   0.9623 B( 10-C , 14-H ) :   0.9580 B( 16-O , 17-H ) :   0.6491 


-------
TIMINGS
-------

Total SCF time: 0 days 0 hours 0 min 20 sec 

Total time                  ....      20.902 sec
Sum of individual times     ....      19.206 sec  ( 91.9%)

SCF preparation             ....       0.191 sec  (  0.9%)
Fock matrix formation       ....      18.496 sec  ( 88.5%)
  Startup                   ....       0.017 sec  (  0.1% of F)
  Split-RI-J                ....       4.084 sec  ( 22.1% of F)
  XC integration            ....      14.047 sec  ( 75.9% of F)
    XC Preparation          ....       0.000 sec  (  0.0% of XC)
    Basis function eval.    ....       4.859 sec  ( 34.6% of XC)
    Density eval.           ....       1.983 sec  ( 14.1% of XC)
    XC-Functional eval.     ....       0.531 sec  (  3.8% of XC)
    XC-Potential eval.      ....       3.065 sec  ( 21.8% of XC)
Diagonalization             ....       0.000 sec  (  0.0%)
Density matrix formation    ....       0.167 sec  (  0.8%)
Total Energy calculation    ....       0.005 sec  (  0.0%)
Population analysis         ....       0.019 sec  (  0.1%)
Orbital Transformation      ....       0.028 sec  (  0.1%)
Orbital Orthonormalization  ....       0.000 sec  (  0.0%)
DIIS solution               ....       0.175 sec  (  0.8%)
SOSCF solution              ....       0.126 sec  (  0.6%)
Finished LeanSCF after  21.0 sec

Maximum memory used throughout the entire LEANSCF-calculation: 18.5 MB

-------------------------   --------------------
FINAL SINGLE POINT ENERGY     -2845.623253882139
-------------------------   --------------------

------------------------------------------------------------------------------
                         ORCA SCF GRADIENT CALCULATION
------------------------------------------------------------------------------

Nuc. rep. gradient        (SHARK) ... done (  0.0 sec)
HCore & Overlap gradient  (SHARK) ... done (  0.1 sec)
Split-RIJ-J gradient      (SHARK) ... done (  1.4 sec)
XC gradient                       ... done (  5.8 sec)

------------------
CARTESIAN GRADIENT
------------------

   1   C   :    0.037235744   -0.115732262    0.037808777
   2   C   :    0.007536586    0.035024392    0.008766007
   3   H   :    0.004167980    0.049263162   -0.009342972
   4   H   :    0.009163552   -0.008362880   -0.006723480
   5   H   :   -0.000799806   -0.005729113    0.012031141
   6   C   :   -0.048575610   -0.037459971    0.005750753
   7   H   :    0.000164119    0.010272610    0.000605744
   8   C   :    0.003183558    0.002426682    0.017656575
   9   H   :   -0.008266454   -0.008283090    0.008494289
  10   H   :   -0.000833803   -0.011059728    0.011726507
  11   C   :    0.003281111   -0.004632457   -0.007267078
  12   H   :   -0.001053923   -0.013404840   -0.002641729
  13   H   :    0.002291482    0.002900111   -0.010763010
  14   H   :   -0.001349431   -0.001305187    0.010363428
  15   H   :   -0.011541324   -0.002141138   -0.003111451
  16   H   :   -0.000751284   -0.007161389   -0.004193712
  17   O   :    0.027215583    0.195713842   -0.078955142
  18   H   :   -0.019455639   -0.034672342    0.003204134
  19   Br  :   -0.001612442   -0.045656404    0.006591220

Difference to translation invariance:
           :    0.0000000005    0.0000000000    0.0000000000

Difference to rotation invariance:
           :    0.0000839395    0.0002318242    0.0000766535

Norm of the Cartesian gradient     ...    0.2736942795
RMS gradient                       ...    0.0362516929
MAX gradient                       ...    0.1957138423

-------
TIMINGS
-------

Total SCF gradient time     ....        7.312 sec

Densities                   ....       0.000 sec  (  0.0%)
One electron gradient       ....       0.137 sec  (  1.9%)
RI-J Coulomb gradient       ....       1.398 sec  ( 19.1%)
XC gradient                 ....       5.774 sec  ( 79.0%)

Maximum memory used throughout the entire SCFGRAD-calculation: 24.0 MB
------------------------------------------------------------------------------
                         ORCA GEOMETRY RELAXATION STEP
------------------------------------------------------------------------------

Reading the OPT-File                    .... done
Getting information on internals        .... done
Copying old internal coords+grads       .... done
Making the new internal coordinates     .... (2022 redundants) done
Validating the new internal coordinates .... (2022 redundants) done
Calculating the B-matrix                .... done
Calculating the G,G- and P matrices     .... done
Transforming gradient to internals      .... done
Projecting the internal gradient        .... done
Number of atoms                         ....  19
Number of internal coordinates          ....  92
Current Energy                          .... -2845.623253882 Eh
Current gradient norm                   ....     0.273694280 Eh/bohr
Maximum allowed component of the step   ....  0.300
Current trust radius                    ....  0.300
Evaluating the initial hessian          ....  (Almloef) done
Projecting the Hessian                  .... done
Forming the augmented Hessian           .... done
Diagonalizing the augmented Hessian     .... done
Last element of RFO vector              ....  0.802824232
Lowest eigenvalues of augmented Hessian:
 -0.236700113  0.010936795  0.011095140  0.011828667  0.014012772
Length of the computed step             ....  0.742647958
Warning: the length of the step is outside the trust region - taking restricted step instead
The input lambda is                     ....     0.009936
   iter:   5  x=   -0.007608  g= 4494.108008 f(x)=    31.780074
   iter:  10  x=   -0.285020  g=    6.187678 f(x)=     0.795096
   iter:  15  x=   -0.865406  g=    0.167832 f(x)=     0.000630
The output lambda is                    ....    -0.865426 (18 iterations)
The final length of the internal step   ....  0.300000000
Converting the step to Cartesian space:
 Initial RMS(Int)=    0.0312771621
Transforming coordinates:
 Iter   0:  RMS(Cart)=    0.1893720530 RMS(Int)=    0.0327960759
 Iter   5:  RMS(Cart)=    0.0000069138 RMS(Int)=    0.0000047701
done
Storing new coordinates                 .... done

                                .--------------------.
          ----------------------|Geometry convergence|-------------------------
          Item                value                   Tolerance       Converged
          ---------------------------------------------------------------------
          RMS gradient        0.0344331276            0.0001000000      NO
          MAX gradient        0.1359849585            0.0003000000      NO
          RMS step            0.0312771621            0.0020000000      NO
          MAX step            0.1204774853            0.0040000000      NO
          -------------------------------------------------------------------------
          ........................................................
          Max(Bonds)      0.0603      Max(Angles)    6.90
          Max(Dihed)        3.60      Max(Improp)    0.00
          ---------------------------------------------------------------------

The optimization has not yet converged - more geometry cycles are needed


    ---------------------------------------------------------------------------
                         Redundant Internal Coordinates
                            (Angstroem and degrees)

        Definition                    Value    dE/dq     Step     New-Value
    ----------------------------------------------------------------------------
     1. B(C   1,C   0)                1.5224 -0.069599  0.0295    1.5519   
     2. B(H   2,C   0)                1.0952 -0.082439  0.0385    1.1337   
     3. B(H   3,C   0)                1.0956 -0.013475  0.0059    1.1015   
     4. B(H   4,C   0)                1.0959 -0.012448  0.0054    1.1013   
     5. B(C   5,C   1)                1.5307 -0.043461  0.0186    1.5492   
     6. B(C   7,C   5)                1.5327 -0.003855  0.0017    1.5344   
     7. B(H   8,C   5)                1.0979  0.008752 -0.0038    1.0941   
     8. B(H   9,C   5)                1.0976 -0.014098  0.0061    1.1037   
     9. B(C  10,C   7)                1.5214 -0.008847  0.0037    1.5252   
    10. B(C  10,H   6)                1.0947 -0.010173  0.0044    1.0991   
    11. B(H  11,C   7)                1.0951 -0.013228  0.0057    1.1008   
    12. B(H  12,C   7)                1.0962 -0.011212  0.0049    1.1011   
    13. B(H  13,C  10)                1.0947 -0.010467  0.0045    1.0993   
    14. B(H  14,C  10)                1.0945 -0.011644  0.0051    1.0996   
    15. B(H  15,C   1)                1.0948 -0.003624  0.0016    1.0964   
    16. B(O  16,H   2)                1.1995  0.002216  0.0010    1.2005   
    17. B(O  16,C   0)                1.8424 -0.117178  0.0603    1.9027   
    18. B(H  17,O  16)                1.6064  0.034680 -0.0201    1.5863   
    19. B(Br 18,C   1)                1.9612 -0.045675  0.0215    1.9827   
    20. A(H   3,C   0,H   4)          107.69 -0.014072    0.44    108.13   
    21. A(C   1,C   0,H   4)          111.67  0.044188   -2.14    109.53   
    22. A(H   2,C   0,H   3)          107.59  0.018475   -0.96    106.64   
    23. A(C   1,C   0,H   3)          111.21  0.050477   -2.36    108.85   
    24. A(H   2,C   0,H   4)          107.89  0.000235    0.09    107.98   
    25. A(H   3,C   0,O  16)          127.89  0.038401   -1.98    125.91   
    26. A(C   1,C   0,H   2)          110.62 -0.099272    4.92    115.54   
    27. A(H   2,C   0,O  16)           38.58  0.037752   -2.05     36.53   
    28. A(C   1,C   0,O  16)           72.37 -0.135985    6.90     79.27   
    29. A(H   4,C   0,O  16)          119.14 -0.001241    0.26    119.40   
    30. A(C   0,C   1,C   5)          111.63 -0.128667    6.19    117.82   
    31. A(H  15,C   1,Br 18)          105.90  0.007394   -0.72    105.18   
    32. A(C   5,C   1,Br 18)          110.20  0.036230   -1.85    108.35   
    33. A(C   5,C   1,H  15)          111.17  0.016776   -0.59    110.59   
    34. A(C   0,C   1,H  15)          109.91  0.044555   -2.00    107.91   
    35. A(C   0,C   1,Br 18)          107.82  0.032201   -1.47    106.36   
    36. A(C   0,H   2,O  16)          106.72 -0.042269    2.47    109.19   
    37. A(H   8,C   5,H   9)          106.57 -0.004600    0.23    106.81   
    38. A(C   7,C   5,H   9)          109.55  0.007522   -0.40    109.15   
    39. A(C   1,C   5,H   9)          110.52  0.002831   -0.20    110.31   
    40. A(C   7,C   5,H   8)          108.07  0.003493   -0.15    107.92   
    41. A(C   1,C   5,H   8)          108.67 -0.015776    0.83    109.50   
    42. A(C   1,C   5,C   7)          113.22  0.005644   -0.27    112.95   
    43. A(C   5,C   7,C  10)          111.33 -0.004123    0.20    111.53   
    44. A(H  11,C   7,H  12)          107.26  0.000738   -0.05    107.22   
    45. A(C  10,C   7,H  12)          109.00 -0.000554    0.02    109.02   
    46. A(C   5,C   7,H  12)          109.82  0.003806   -0.19    109.63   
    47. A(C  10,C   7,H  11)          108.63  0.000943   -0.03    108.60   
    48. A(C   5,C   7,H  11)          110.68 -0.000661    0.05    110.73   
    49. A(H   6,C  10,C   7)          110.98 -0.000108    0.00    110.99   
    50. A(H  13,C  10,H  14)          108.12  0.002410   -0.11    108.00   
    51. A(C   7,C  10,H  14)          110.22 -0.004973    0.25    110.47   
    52. A(H   6,C  10,H  14)          108.05  0.001659   -0.08    107.98   
    53. A(C   7,C  10,H  13)          111.02 -0.000170    0.01    111.02   
    54. A(H   6,C  10,H  13)          108.35  0.001398   -0.08    108.27   
    55. A(H   2,O  16,H  17)          104.61 -0.031886    1.80    106.42   
    56. A(C   0,O  16,H  17)          139.13 -0.027583    1.40    140.53   
    57. A(C   0,O  16,H   2)           34.70  0.004517   -0.42     34.29   
    58. D(H  15,C   1,C   0,H   2)    -62.84 -0.011957    0.83    -62.00   
    59. D(H  15,C   1,C   0,H   4)    176.99  0.025648   -1.18    175.80   
    60. D(C   5,C   1,C   0,H   2)     61.00 -0.048624    2.98     63.98   
    61. D(C   5,C   1,C   0,H   4)    -59.18 -0.011019    0.96    -58.21   
    62. D(H  15,C   1,C   0,H   3)     56.66 -0.021253    1.34     58.00   
    63. D(C   5,C   1,C   0,O  16)     55.89 -0.059099    3.60     59.49   
    64. D(C   5,C   1,C   0,H   3)   -179.50 -0.057920    3.49   -176.02   
    65. D(O  16,H   2,C   0,H   4)    114.59 -0.010554    0.76    115.35   
    66. D(O  16,H   2,C   0,H   3)   -129.48 -0.017388    0.83   -128.65   
    67. D(O  16,H   2,C   0,C   1)     -7.83 -0.003649    0.30     -7.53   
    68. D(H   8,C   5,C   1,C   0)    -48.74 -0.001672    0.04    -48.70   
    69. D(C   7,C   5,C   1,Br 18)     71.41  0.020288   -1.12     70.28   
    70. D(C   7,C   5,C   1,H  15)    -45.69 -0.021681    1.27    -44.42   
    71. D(H   8,C   5,C   1,H  15)     74.38 -0.024574    1.48     75.87   
    72. D(C   7,C   5,C   1,C   0)   -168.81  0.001221   -0.17   -168.99   
    73. D(H   8,C   5,C   1,Br 18)   -168.52  0.017394   -0.91   -169.43   
    74. D(H  11,C   7,C   5,H   9)     60.65  0.002669   -0.14     60.51   
    75. D(H  11,C   7,C   5,H   8)    176.39  0.003143   -0.16    176.23   
    76. D(H  11,C   7,C   5,C   1)    -63.19 -0.010731    0.61    -62.58   
    77. D(C  10,C   7,C   5,H   9)    -60.28  0.004704   -0.27    -60.54   
    78. D(C  10,C   7,C   5,H   8)     55.46  0.005178   -0.29     55.17   
    79. D(C  10,C   7,C   5,C   1)    175.88 -0.008695    0.49    176.36   
    80. D(H  13,C  10,C   7,H  12)   -178.77  0.000878   -0.05   -178.82   
    81. D(H  13,C  10,C   7,H  11)    -62.20  0.001975   -0.11    -62.31   
    82. D(H  13,C  10,C   7,C   5)     59.93 -0.000870    0.05     59.98   
    83. D(H   6,C  10,C   7,H  12)     60.67 -0.000704    0.04     60.71   
    84. D(H   6,C  10,C   7,H  11)    177.24  0.000393   -0.02    177.22   
    85. D(H   6,C  10,C   7,C   5)    -60.63 -0.002452    0.14    -60.49   
    86. D(H   2,O  16,C   0,H   4)    -82.23 -0.029779    1.70    -80.54   
    87. D(H   2,O  16,C   0,H   3)     68.80  0.025027   -1.43     67.37   
    88. D(H   2,O  16,C   0,C   1)    172.31 -0.014455    0.84    173.15   
    89. D(H  17,O  16,H   2,C   0)    174.96 -0.003635    0.19    175.15   
    90. D(H  17,O  16,C   0,H   3)     61.33  0.022714   -1.30     60.03   
    91. D(H  17,O  16,C   0,H   2)     -7.47 -0.002313    0.13     -7.34   
    92. D(H  17,O  16,C   0,C   1)    164.85 -0.016768    0.97    165.82   
    ----------------------------------------------------------------------------

Geometry step timings:
Preparation and reading OPT file:      0.000 s ( 0.327 %)
Internal coordinates            :      0.000 s ( 1.477 %)
B/P matrices and projection     :      0.010 s (50.219 %)
Hessian update/contruction      :      0.002 s ( 9.546 %)
Making the step                 :      0.004 s (20.874 %)
Converting the step to Cartesian:      0.002 s ( 8.728 %)
Storing new data                :      0.000 s ( 1.624 %)
Checking convergence            :      0.000 s ( 0.559 %)
Final printing                  :      0.001 s ( 6.640 %)
Total time                      :      0.019 s

Time for energy+gradient        :     34.679 s
Time for complete geometry iter :     35.706 s

         *************************************************************
         *                GEOMETRY OPTIMIZATION CYCLE   2            *
         *************************************************************
---------------------------------
CARTESIAN COORDINATES (ANGSTROEM)
---------------------------------
  C     -3.447912    0.551606   -0.115446
  C     -2.124054    1.220132    0.341519
  H     -3.547771   -0.551852    0.125493
  H     -4.292489    1.059220    0.376788
  H     -3.563584    0.674146   -1.203794
  C     -0.804571    0.723972   -0.301103
  H      1.739089   -0.414854   -0.100933
  C      0.445325    1.258323    0.410601
  H     -0.770070   -0.369020   -0.266818
  H     -0.765388    1.011235   -1.366077
  C      1.722090    0.680433   -0.191117
  H      0.491862    2.356195    0.344738
  H      0.402353    0.997444    1.479503
  H      1.808851    0.939890   -1.255785
  H      2.606036    1.077453    0.328536
  H     -2.071218    1.148653    1.434275
  O     -2.504955   -0.956722    0.560195
  H     -2.753182   -2.462790    0.992132
  Br    -2.314666    3.156064   -0.041852

----------------------------
CARTESIAN COORDINATES (A.U.)
----------------------------
  NO LB      ZA    FRAG     MASS         X           Y           Z
   0 C     6.0000    0    12.011   -6.515609    1.042385   -0.218161
   1 C     6.0000    0    12.011   -4.013880    2.305716    0.645377
   2 H     1.0000    0     1.008   -6.704316   -1.042850    0.237148
   3 H     1.0000    0     1.008   -8.111629    2.001635    0.712026
   4 H     1.0000    0     1.008   -6.734197    1.273951   -2.274841
   5 C     6.0000    0    12.011   -1.520418    1.368109   -0.569002
   6 H     1.0000    0     1.008    3.286401   -0.783961   -0.190736
   7 C     6.0000    0    12.011    0.841542    2.377886    0.775923
   8 H     1.0000    0     1.008   -1.455221   -0.697346   -0.504213
   9 H     1.0000    0     1.008   -1.446374    1.910958   -2.581512
  10 C     6.0000    0    12.011    3.254278    1.285833   -0.361159
  11 H     1.0000    0     1.008    0.929484    4.452562    0.651460
  12 H     1.0000    0     1.008    0.760336    1.884897    2.795855
  13 H     1.0000    0     1.008    3.418234    1.776135   -2.373091
  14 H     1.0000    0     1.008    4.924694    2.036090    0.620843
  15 H     1.0000    0     1.008   -3.914035    2.170640    2.710386
  16 O     8.0000    0    15.999   -4.733680   -1.807943    1.058615
  17 H     1.0000    0     1.008   -5.202760   -4.653998    1.874858
  18 Br   35.0000    0    79.900   -4.374085    5.964096   -0.079090

--------------------------------
INTERNAL COORDINATES (ANGSTROEM)
--------------------------------
[...]
H      2.121632     0.520204     0.691174 
H     -2.476817     2.251243     0.368320 
O     -2.111002    -1.840209     1.471228 
H     -1.394188    -1.764076     0.814462 
Br    -0.130852     4.275782    -0.256149 

-----------------------------------------
  PRODUCT (ANGSTROEM)
-----------------------------------------
C     -3.429889     0.497230    -0.293715 
C     -2.214010     1.272575     0.208379 
H     -3.346053    -0.558418     0.055441 
H     -4.369280     0.950138     0.086327 
H     -3.468880     0.501533    -1.407450 
C     -0.910044     0.672040    -0.318392 
H      1.633663    -0.442095    -0.029696 
C      0.353497     1.290147     0.282560 
H     -0.938747    -0.421297    -0.073606 
H     -0.895099     0.771623    -1.433725 
C      1.637172     0.646753    -0.246110 
H      0.357265     2.390290     0.109891 
H      0.309536     1.150214     1.385736 
H      1.729634     0.765098    -1.348243 
H      2.548819     1.085915     0.213368 
H     -2.196508     1.198738     1.318009 
O     -2.319239     2.687479    -0.064223 
H     -2.283540     2.754647    -1.037613 
Br    -1.617168    -2.426045     1.378521 



----------------------
NEB settings
----------------------
Method type                             ....  climbing image
Threshold for climbing image            ....  2.00e-02 Eh/Bohr 
Free endpoints                          ....  off 
Tangent type                            ....  improved 
Number of intermediate images           ....  3 
Number of images free to move           ....  3 
Spring type for image distribution      ....  distance between adjacent images 
Spring constant                         ....  energy weighted (0.0100 -to- 0.1000) Eh/Bohr^2 
Spring force perp. to the path          ....  none 
Generation of initial path              ....  image dependent pair potential 
Initial path via TS guess               ....  off 

Minimization of RMSD: Rotation          ....  always 
Minimization of RMSD: Translation type  ....  centroid 
Center fixed to origin                  ....  true 
Remove external force                   ....  true 

Reparametrization of the path           ....  off 
Convergence thresholds:
Convergence monitored for               ....  all images
Scaling factor                          ....  10.00

Convergence parameters for regular images:
               Max(|Fp|)                ....  2.00e-02 Eh/Bohr
               RMS(Fp)                  ....  1.00e-02 Eh/Bohr

Convergence parameters for climbing image:
               Max(|F|)                 ....  2.00e-03 Eh/Bohr
               RMS(F)                   ....  1.00e-03 Eh/Bohr
Optimization method:
Method                                  ....  L-BFGS
Max. iterations                         ....  100 
Step size                               ....  1.00 
Maximum allowed step size               ....  0.10 Bohr

LBFGS parameters: 
               Memory                   ....  20 
               Initial step size        ....  0.0010 
               Estimate curvature       ....  YES 
               Reset on maxmove         ....  YES 
               Reparam. on reset        ....  NO 
Generation of  the initial path:
Two fragments detected in initial structure. Preparing initial structure... Done
Minimize RMSD between reactant and product configurations     .... done
       RMSD before minimization         ....  2.6559 Bohr
       RMSD after minimization          ....  2.1877 Bohr
Performing linear interpolation         ....  done
Generating initial path 1 out of 129 -> Success!
Displacement along initial path:             21.6698 Bohr
Writing initial trajectory to file      ....  sn2_ts_initial_path_trj.xyz



----------------------
NEB OPTIMIZATION      
----------------------

Following output files will be written:
Energy profile during opt. written to    ....  sn2_ts.interp
Optimization log-file                    ....  sn2_ts.NEB.log
Current trajectory will be written to    ....  sn2_ts_MEP_trj.xyz
       and to allxyz file                ....  sn2_ts_MEP.allxyz
       and individual images to xyz file ....  sn2_ts_im{NIm}.xyz
Trajectory history will be written to    ....  sn2_ts_MEP_ALL_trj.xyz
Converged CI will be written to          ....  sn2_ts_NEB-CI_converged.xyz
Converged TS will be written to          ....  sn2_ts_NEB-TS_converged.xyz

Single point energy and gradient calculation of reactant and
product configurations (have to be performed only once)
Properties of fixed NEB end points:
               Reactant:
                         E               ....  -2845.921025 Eh
                         RMS(F)          ....      0.000259 Eh/Bohr
                         MAX(|F|)        ....      0.000897 Eh/Bohr
               Product:
                         E               ....  -2845.946038 Eh
                         RMS(F)          ....      0.000052 Eh/Bohr
                         MAX(|F|)        ....      0.000171 Eh/Bohr



Starting iterations:

Optim.  Iteration  HEI  E(HEI)-E(0)  max(|Fp|)   RMS(Fp)    dS
Switch-on CI threshold               0.020000 
   LBFGS     0      2    0.249890    0.089141   0.014857  21.6698       
   LBFGS     1      2    0.241794    0.084768   0.013431  21.5824       
   LBFGS     2      2    0.234305    0.073484   0.012736  21.5083       
   LBFGS     3      2    0.226369    0.068670   0.011847  21.4400       
   LBFGS     4      2    0.214428    0.068560   0.011454  21.3784       
   LBFGS     5      2    0.203126    0.063941   0.010630  21.3244       
   LBFGS     6      2    0.184703    0.057774   0.010225  21.2952       
   LBFGS     7      2    0.168907    0.057171   0.009197  21.2967       
   LBFGS     8      2    0.159543    0.051194   0.007881  21.3522       
   LBFGS     9      2    0.153999    0.037782   0.007101  21.4229       
   LBFGS    10      2    0.149550    0.028689   0.005742  21.5124       
   LBFGS    11      2    0.145212    0.027572   0.005303  21.5950       
   LBFGS    12      2    0.141205    0.025533   0.005294  21.7328       
   LBFGS    13      2    0.138678    0.118286   0.012350  21.8461       
   LBFGS    14      2    0.137200    0.077830   0.008986  21.9507       
   LBFGS    15      2    0.135267    0.057430   0.007542  22.1091       
   LBFGS    16      2    0.133031    0.029189   0.004397  22.1164       
   LBFGS    17      2    0.132762    0.031391   0.004598  22.1343       
   LBFGS    18      2    0.132176    0.035427   0.005209  22.2149       
   LBFGS    19      2    0.130636    0.044490   0.005649  22.2759       
   LBFGS    20      2    0.130405    0.025940   0.004460  22.3218       
   LBFGS    21      2    0.129518    0.025002   0.004061  22.4539       
   LBFGS    22      2    0.129247    0.034733   0.004558  22.4736       
   LBFGS    23      2    0.128420    0.034684   0.004381  22.5270       
   LBFGS    24      2    0.126207    0.030449   0.004059  22.6514       
   LBFGS    25      2    0.124692    0.019991   0.003867  22.7479       

Image  2 will be converted to a climbing image in the next iteration (max(|Fp|) < 0.0200) 

Optim.  Iteration  CI   E(CI)-E(0)   max(|Fp|)   RMS(Fp)    dS     max(|FCI|)   RMS(FCI)
Convergence thresholds               0.020000   0.010000            0.002000    0.001000 
   LBFGS    26      2    0.123764    0.009981   0.002360  22.7616    0.012695    0.003447       
   LBFGS    27      2    0.122910    0.014135   0.002612  22.8232    0.017393    0.004454       
   LBFGS    28      2    0.121987    0.032326   0.004124  23.0029    0.038702    0.008824       
   LBFGS    29      2    0.120303    0.039948   0.004968  23.2085    0.049631    0.011057       
   LBFGS    30      2    0.115616    0.022077   0.003108  23.2442    0.018088    0.003719       
   LBFGS    31      2    0.114935    0.007253   0.001739  23.2715    0.018693    0.003935       
   LBFGS    32      2    0.112292    0.023782   0.003233  23.3745    0.021077    0.005196       
   LBFGS    33      2    0.108381    0.036611   0.004872  23.5203    0.024110    0.006156       
   LBFGS    34      2    0.106327    0.023824   0.003424  23.5695    0.025335    0.004594       
   LBFGS    35      2    0.105121    0.012382   0.002210  23.6070    0.026207    0.004869       
   LBFGS    36      2    0.100170    0.008531   0.001691  23.7467    0.029741    0.005942       
   LBFGS    37      2    0.094295    0.009990   0.002008  23.8721    0.034366    0.007418       
   LBFGS    38      2    0.088083    0.024038   0.003060  24.0053    0.039123    0.010478       
   LBFGS    39      2    0.078885    0.029534   0.004046  24.1549    0.046112    0.011960       
   LBFGS    40      2    0.070331    0.029607   0.004537  24.3479    0.059476    0.015425       
   LBFGS    41      2    0.054921    0.041097   0.005830  24.6082    0.044585    0.011926       
   LBFGS    42      2    0.054273    0.078477   0.011490  24.9486    0.092738    0.021121       
   LBFGS    43      2    0.041447    0.045316   0.006047  25.1042    0.039403    0.008397       
   LBFGS    44      2    0.039324    0.060209   0.008219  25.2970    0.036035    0.008024       
   LBFGS    45      1    0.042182    0.018749   0.002965  25.4834    0.068605    0.016236       
   LBFGS    46      1    0.038032    0.021357   0.003813  25.5688    0.027935    0.008168       
   LBFGS    47      1    0.038843    0.020451   0.003754  25.5916    0.048741    0.012034       
   LBFGS    48      1    0.035911    0.019206   0.003465  25.6259    0.027191    0.008156       
   LBFGS    49      1    0.034668    0.013918   0.002777  25.6744    0.023132    0.006748       
   LBFGS    50      2    0.034986    0.019289   0.002574  25.7168    0.023568    0.006751       
   LBFGS    51      2    0.034986    0.019289   0.002574  25.7168    0.023568    0.006751       
   LBFGS    52      2    0.035045    0.047390   0.004479  25.9184    0.024835    0.006823       
   LBFGS    53      2    0.035309    0.068440   0.007256  26.1236    0.026141    0.007272       
   LBFGS    54      2    0.035862    0.042939   0.004791  26.2416    0.028118    0.007789       
   LBFGS    55      1    0.048904    0.015419   0.002705  26.3531    0.033199    0.010795       
   LBFGS    56      1    0.050009    0.024269   0.004170  26.3981    0.025904    0.008892       
   LBFGS    57      1    0.047827    0.030233   0.005024  26.2865    0.023056    0.006952       
   LBFGS    58      1    0.045752    0.030960   0.004879  26.2485    0.022010    0.005812       
   LBFGS    59      1    0.044134    0.022160   0.004136  26.4934    0.019243    0.005678       
   LBFGS    60      2    0.044276    0.012050   0.002309  26.7516    0.032921    0.009326       
   LBFGS    61      2    0.044276    0.012050   0.002309  26.7516    0.032918    0.009326       
   LBFGS    62      2    0.048007    0.019350   0.003156  26.9465    0.039903    0.012000       
   LBFGS    63      2    0.053207    0.029980   0.004751  27.1499    0.045168    0.014856       
   LBFGS    64      2    0.061250    0.017136   0.003299  27.2463    0.049020    0.014869       
   LBFGS    65      2    0.070378    0.016168   0.002801  27.3202    0.050797    0.015509       
   LBFGS    66      2    0.075290    0.014763   0.002525  27.3128    0.051365    0.015412       
   LBFGS    67      2    0.081000    0.015872   0.002735  27.3139    0.053945    0.015622       
   LBFGS    68      2    0.082169    0.012751   0.002516  27.2336    0.056244    0.015936       
   LBFGS    69      2    0.084887    0.026944   0.003870  27.1688    0.058589    0.017756       
   LBFGS    70      2    0.084731    0.039023   0.005068  27.1343    0.060846    0.018382       
   LBFGS    71      2    0.087754    0.058354   0.007321  27.1226    0.067439    0.021554       
   LBFGS    72      2    0.082018    0.058827   0.006691  27.1249    0.064912    0.018913       
   LBFGS    73      2    0.081003    0.055604   0.006530  27.2307    0.065574    0.021155       
   LBFGS    74      2    0.080154    0.051869   0.006425  27.3575    0.066533    0.022843       
   LBFGS    75      2    0.072982    0.027273   0.003824  27.4714    0.062248    0.018513       
   LBFGS    76      2    0.071363    0.053036   0.006694  27.6847    0.063139    0.020872       
   LBFGS    77      2    0.063292    0.060288   0.006868  27.8421    0.057582    0.017237       
   LBFGS    78      2    0.059801    0.046421   0.005403  28.0688    0.053081    0.016718       
   LBFGS    79      2    0.055285    0.036677   0.004337  28.3125    0.046498    0.014547       
   LBFGS    80      2    0.052708    0.051779   0.006232  28.5346    0.048814    0.014698       
   LBFGS    81      2    0.050195    0.029358   0.003998  28.7073    0.046447    0.013998       
   LBFGS    82      2    0.047855    0.019522   0.003022  28.9268    0.045456    0.013479       
   LBFGS    83      2    0.049833    0.049531   0.005259  29.0493    0.070943    0.019653       
   LBFGS    84      2    0.044837    0.039083   0.004022  29.1119    0.040408    0.013054       
   LBFGS    85      2    0.041203    0.023938   0.002874  29.2997    0.035030    0.008690       
   LBFGS    86      2    0.038973    0.017502   0.002864  29.6201    0.033656    0.007620       
   LBFGS    87      2    0.038729    0.010484   0.001685  29.6161    0.033416    0.007833       
   LBFGS    88      2    0.037706    0.019851   0.002965  29.7532    0.031907    0.008379       
   LBFGS    89      2    0.035859    0.029934   0.003676  30.0295    0.030264    0.006688       
   LBFGS    90      2    0.035654    0.012628   0.001987  30.0185    0.030277    0.006845       
   LBFGS    91      2    0.034933    0.019589   0.002805  30.1217    0.029517    0.007406       
   LBFGS    92      2    0.033494    0.023772   0.003081  30.3829    0.028460    0.006051       
   LBFGS    93      2    0.033591    0.007948   0.001620  30.3378    0.028431    0.006387       
   LBFGS    94      2    0.033427    0.008580   0.001801  30.3839    0.028131    0.006780       
   LBFGS    95      2    0.032723    0.010813   0.001993  30.5337    0.027404    0.006656       
   LBFGS    96      2    0.031752    0.012291   0.002126  30.7723    0.026287    0.006436       
   LBFGS    97      2    0.030483    0.028318   0.003767  31.0708    0.025343    0.005143       
   LBFGS    98      2    0.030709    0.006736   0.001562  30.9720    0.025446    0.005540       
   LBFGS    99      2    0.030794    0.006541   0.001565  30.9891    0.025525    0.005958       

                                .--------------------.
          ----------------------| CI-NEB convergence |-------------------------
          Item                value                   Tolerance       Converged
          ---------------------------------------------------------------------
          RMS(Fp)             0.0015654325            0.0100000000      YES
          MAX(|Fp|)           0.0065410008            0.0200000000      YES
          RMS(FCI)            0.0059584703            0.0010000000      NO
          MAX(|FCI|)          0.0255253563            0.0020000000      NO
          ---------------------------------------------------------------------

Unable to converge in 100 iterations

---------------------------------------------------------------
                         PATH SUMMARY              
---------------------------------------------------------------
All forces in Eh/Bohr.

Image Dist.(Ang.)    E(Eh)   dE(kcal/mol)  max(|Fp|)  RMS(Fp)
  0     0.000   -2845.92103      0.00       0.00088   0.00025
  1     3.358   -2845.89936     13.60       0.00654   0.00238
  2     5.907   -2845.89023     19.32       0.01599   0.00472 <= CI
  3    10.840   -2845.89212     18.14       0.00505   0.00203
  4    16.399   -2845.94604    -15.70       0.00018   0.00005

Straight line distance between images along the path:
        D( 0- 1) =   3.3581 Ang.
        D( 1- 2) =   2.5491 Ang.
        D( 2- 3) =   4.9325 Ang.
        D( 3- 4) =   5.5589 Ang.

---------------------------------------------------------------
               INFORMATION ABOUT SADDLE POINT     
---------------------------------------------------------------

Climbing image                            ....  2 
Energy                                    ....  -2845.89023131 Eh
Max. abs. force                           ....  2.5525e-02 Eh/Bohr

-----------------------------------------
  SADDLE POINT (ANGSTROEM)
-----------------------------------------
C     -2.344149     0.149110    -0.134827 
C     -1.380008     1.090314    -0.347401 
H     -2.078764    -0.940502     0.052157 
H     -3.440996     0.328335    -0.094567 
H     -1.493587    -2.561534     0.918513 
C      0.040852     0.615027    -0.702038 
H      2.568771    -0.134841    -1.238424 
C      0.916623    -0.315852     0.191678 
H     -0.032193     0.098002    -1.690612 
H      0.646156     1.535762    -0.897306 
C      2.382820     0.004329    -0.150672 
H      0.738601    -0.141064     1.276948 
H      0.736798    -1.413356     0.038068 
H      2.557236     1.080913     0.051481 
H      3.141196    -0.593322     0.399680 
H     -1.493524     2.242793    -0.383860 
O     -1.354908    -2.682130     1.892268 
H     -0.415293    -2.400853     1.920551 
Br     0.304369     4.038867    -1.101637 

-----------------------------------------
  FORCES (Eh/Bohr)
-----------------------------------------
C      0.001272    -0.000607     0.003897 
C      0.002864    -0.013755     0.000710 
H     -0.001534     0.017052    -0.007888 
H      0.005592     0.005577     0.005800 
H     -0.003871    -0.002693     0.011635 
C      0.000401     0.001020    -0.000358 
H     -0.000247    -0.000886     0.000965 
C      0.000101     0.002912    -0.000235 
H     -0.000251     0.003209     0.000637 
H     -0.005672     0.001637     0.000691 
C      0.000079     0.000205     0.000694 
H     -0.001070     0.002846    -0.000522 
H     -0.003750     0.004103    -0.001363 
H      0.002254    -0.000175     0.000381 
H     -0.001843    -0.001309     0.001367 
H      0.000022    -0.025525    -0.004207 
O      0.007755     0.001431    -0.017366 
H     -0.003353     0.000930     0.004882 
Br     0.001251     0.004029     0.000279 

-----------------------------------------
  UNIT TANGENT
-----------------------------------------
C     -0.024583    -0.048997     0.162611 
C      0.025373    -0.292968     0.017698 
H     -0.049363     0.230072     0.294882 
H      0.048953     0.060412     0.078252 
H     -0.258155     0.238684    -0.033835 
C      0.012684    -0.048939     0.063425 
H      0.021877     0.052738     0.007082 
C      0.063347    -0.009948     0.026446 
H      0.069144     0.039880     0.044708 
H     -0.105743    -0.012382     0.128076 
C      0.042383     0.031220     0.010884 
H      0.073698    -0.034838     0.030814 
H      0.080846    -0.004921     0.002766 
H      0.030634     0.028095     0.028563 
H      0.056565     0.030433    -0.014166 
H     -0.037919    -0.482270    -0.183543 
O      0.064935     0.170724    -0.404179 
H     -0.077373     0.112847    -0.192404 
Br    -0.037304    -0.059839    -0.068080 
 => Unit tangent is an approximation to the TS mode at the saddle point
NEB not converged. Skipping NEB-TS run here.
----------
STATISTICS
----------

For the individual parts of the NEB, NEB-CI or NEB-TS run:

Number of iterations:
     Total                             ... 180
     Reactant and product optimization ... 80  44.4%
     NEB                               ... 100  55.6%
Number of SCF / gradient calculations:
     Total                             ... 499
     Reactant and product optimization ... 80  16.0%
     NEB                               ... 419  84.0%

----------
 TIMINGS
----------

For the individual parts of the NEB, NEB-CI or NEB-TS run:

Total                                  ...     7641.184 sec
Reactant and product optimization      ...     1570.712 sec  20.6%
NEB                                    ...     6070.472 sec  79.4%

[file orca_main/run.cpp, line 1547]: ORCA finished with error return - aborting the run
